/*--------------------------------*- C++ -*----------------------------------*\
| =========                 |                                                 |
| \\      /  F ield         | OpenFOAM: The Open Source CFD Toolbox           |
|  \\    /   O peration     | Version:  3.0.1                                 |
|   \\  /    A nd           | Web:      www.OpenFOAM.org                      |
|    \\/     M anipulation  |                                                 |
\*---------------------------------------------------------------------------*/
FoamFile
{
    version     2.0;
    format      ascii;
    class       surfaceScalarField;
    location    "1";
    object      alphaPhi;
}
// * * * * * * * * * * * * * * * * * * * * * * * * * * * * * * * * * * * * * //

dimensions      [0 3 -1 0 0 0 0];

internalField   nonuniform List<scalar> 
159400
(
2.73396e-14
-2.98659e-14
-4.18476e-10
4.18502e-10
-4.10889e-10
-7.5916e-12
-3.99505e-10
-1.13815e-11
-3.70505e-10
-2.89984e-11
-3.41704e-10
-2.87983e-11
-3.14704e-10
-2.69985e-11
-2.90049e-10
-2.46506e-11
-2.68044e-10
-2.20057e-11
-2.48696e-10
-1.93483e-11
-2.31123e-10
-1.75764e-11
-2.15517e-10
-1.56066e-11
-2.0206e-10
-1.34617e-11
-1.89827e-10
-1.22315e-11
-1.78424e-10
-1.14074e-11
-1.68208e-10
-1.02117e-11
-1.59002e-10
-9.21194e-12
-1.50137e-10
-8.86291e-12
-1.41592e-10
-8.54926e-12
-1.33556e-10
-8.03468e-12
-1.25976e-10
-7.57758e-12
-1.18597e-10
-7.38042e-12
-1.11151e-10
-7.43986e-12
-1.03855e-10
-7.2997e-12
-9.68644e-11
-6.98723e-12
-8.99221e-11
-6.94403e-12
-8.28874e-11
-7.0347e-12
-7.57501e-11
-7.13161e-12
-6.87793e-11
-6.9716e-12
-6.18553e-11
-6.91607e-12
-5.49207e-11
-6.93372e-12
-4.78701e-11
-7.05044e-12
-4.08608e-11
-7.00584e-12
-3.38896e-11
-6.9757e-12
-2.69293e-11
-6.95714e-12
-1.9985e-11
-6.94274e-12
-1.29548e-11
-7.03088e-12
-5.89394e-12
-7.05455e-12
1.06071e-12
-6.95652e-12
8.00003e-12
-6.94093e-12
1.48034e-11
-6.8037e-12
2.15351e-11
-6.74011e-12
2.82886e-11
-6.75568e-12
3.49406e-11
-6.65362e-12
4.14325e-11
-6.49754e-12
4.77972e-11
-6.36342e-12
5.39961e-11
-6.20134e-12
6.00834e-11
-6.09263e-12
6.60308e-11
-5.94537e-12
7.17368e-11
-5.70666e-12
7.72553e-11
-5.51804e-12
8.25779e-11
-5.31543e-12
8.76928e-11
-5.11313e-12
9.26449e-11
-4.95081e-12
9.74231e-11
-4.77219e-12
1.0194e-10
-4.51671e-12
1.06179e-10
-4.23922e-12
1.10091e-10
-3.90902e-12
1.13749e-10
-3.66121e-12
1.17149e-10
-3.40396e-12
1.20324e-10
-3.17315e-12
1.23133e-10
-2.81047e-12
1.25587e-10
-2.45851e-12
1.27685e-10
-2.09848e-12
1.29387e-10
-1.70683e-12
1.30743e-10
-1.36108e-12
1.3173e-10
-9.82744e-13
1.32337e-10
-6.02046e-13
1.32566e-10
-2.28317e-13
1.32425e-10
1.4401e-13
1.31857e-10
5.68557e-13
1.30905e-10
9.49763e-13
1.29542e-10
1.36652e-12
1.27813e-10
1.7347e-12
1.25729e-10
2.08063e-12
1.23269e-10
2.45333e-12
1.20462e-10
2.80119e-12
1.17252e-10
3.20464e-12
1.13691e-10
3.56123e-12
1.09747e-10
3.9513e-12
1.0549e-10
4.2601e-12
1.00908e-10
4.57665e-12
9.60922e-11
4.81351e-12
9.09933e-11
5.10109e-12
8.56858e-11
5.3115e-12
8.0019e-11
5.67377e-12
7.41562e-11
5.86813e-12
6.79876e-11
6.16288e-12
6.15786e-11
6.39632e-12
5.49678e-11
6.60377e-12
4.81952e-11
6.77322e-12
4.12593e-11
6.94072e-12
3.41788e-11
7.08983e-12
2.69426e-11
7.24549e-12
1.95642e-11
7.37903e-12
1.20256e-11
7.53227e-12
4.36471e-12
7.65563e-12
-3.40885e-12
7.76997e-12
-1.12331e-11
7.82102e-12
-1.9046e-11
7.81409e-12
-2.68432e-11
7.8026e-12
-3.45626e-11
7.7216e-12
-4.22503e-11
7.68516e-12
-4.98764e-11
7.6242e-12
-5.74549e-11
7.57763e-12
-6.49676e-11
7.5096e-12
-7.23998e-11
7.42979e-12
-7.97358e-11
7.33713e-12
-8.69427e-11
7.20811e-12
-9.39709e-11
7.02722e-12
-1.00788e-10
6.81769e-12
-1.07361e-10
6.5753e-12
-1.13659e-10
6.29932e-12
-1.19676e-10
6.01642e-12
-1.25402e-10
5.72719e-12
-1.30851e-10
5.45169e-12
-1.36034e-10
5.1833e-12
-1.40957e-10
4.92249e-12
-1.45624e-10
4.6679e-12
-1.50022e-10
4.39901e-12
-1.54145e-10
4.12157e-12
-1.5796e-10
3.81399e-12
-1.61431e-10
3.4712e-12
-1.64525e-10
3.09563e-12
-1.6722e-10
2.69413e-12
-1.69483e-10
2.2625e-12
-1.71305e-10
1.82356e-12
-1.72698e-10
1.39445e-12
-1.73667e-10
9.68218e-13
-1.74232e-10
5.63612e-13
-1.74419e-10
1.87864e-13
-1.74262e-10
-1.57182e-13
-1.73801e-10
-4.61837e-13
-1.73062e-10
-7.40186e-13
-1.72083e-10
-9.77754e-13
-1.70895e-10
-1.18668e-12
-1.69496e-10
-1.40036e-12
-1.67902e-10
-1.59354e-12
-1.66121e-10
-1.78003e-12
-1.64142e-10
-1.97898e-12
-1.61959e-10
-2.18557e-12
-1.59552e-10
-2.40781e-12
-1.56926e-10
-2.62592e-12
-1.54073e-10
-2.85325e-12
-1.50992e-10
-3.08249e-12
-1.47674e-10
-3.31907e-12
-1.44121e-10
-3.55216e-12
-1.40338e-10
-3.78314e-12
-1.36335e-10
-4.00368e-12
-1.32131e-10
-4.20538e-12
-1.27722e-10
-4.40777e-12
-1.23142e-10
-4.57923e-12
-1.18401e-10
-4.74124e-12
-1.13513e-10
-4.88908e-12
-1.08495e-10
-5.01703e-12
-1.03384e-10
-5.11131e-12
-9.82066e-11
-5.17866e-12
-9.29758e-11
-5.23299e-12
-8.77129e-11
-5.26335e-12
-8.24337e-11
-5.27816e-12
-7.71716e-11
-5.26196e-12
-7.19452e-11
-5.22727e-12
-6.67697e-11
-5.17583e-12
-6.16689e-11
-5.10019e-12
-5.66593e-11
-5.00966e-12
-5.17651e-11
-4.89509e-12
-4.69795e-11
-4.78546e-12
-4.23312e-11
-4.6461e-12
-3.7835e-11
-4.49361e-12
-3.35207e-11
-4.31331e-12
-2.93784e-11
-4.14228e-12
-2.54287e-11
-3.94882e-12
-2.16887e-11
-3.73868e-12
-1.81532e-11
-3.53491e-12
-1.48477e-11
-3.30541e-12
-1.17759e-11
-3.07077e-12
-8.93157e-12
-2.84227e-12
-6.3285e-12
-2.60209e-12
-3.98061e-12
-2.3489e-12
-1.88069e-12
-2.10141e-12
-2.20432e-14
-1.85912e-12
1.57048e-12
-1.5925e-12
2.90098e-12
-1.33128e-12
3.97548e-12
-1.07584e-12
4.80698e-12
-8.32077e-13
5.39457e-12
-5.87259e-13
5.74647e-12
-3.5182e-13
5.85422e-12
-1.0832e-13
5.73787e-12
1.16172e-13
5.42551e-12
3.13195e-13
4.92942e-12
4.97026e-13
4.27667e-12
6.52615e-13
3.50755e-12
7.68218e-13
2.65301e-12
8.53975e-13
1.77684e-12
8.75988e-13
9.38761e-13
8.37395e-13
2.32366e-13
7.05092e-13
-2.58061e-13
4.89735e-13
-3.68775e-13
1.11558e-13
-3.67076e-13
4.18011e-10
-4.18042e-10
4.16906e-10
4.1962e-10
2.36082e-10
1.7323e-10
1.61903e-10
6.27973e-11
1.04698e-10
2.82036e-11
6.51173e-11
1.07805e-11
3.60761e-11
2.04064e-12
1.57158e-11
-4.29106e-12
8.73665e-13
-7.15765e-12
-9.00903e-12
-9.46408e-12
-1.59394e-11
-1.06388e-11
-2.09075e-11
-1.06414e-11
-2.38363e-11
-1.0527e-11
-2.50609e-11
-1.10146e-11
-2.52121e-11
-1.12496e-11
-2.43719e-11
-1.10581e-11
-2.2345e-11
-1.1231e-11
-1.93355e-11
-1.18752e-11
-1.54621e-11
-1.24226e-11
-1.08708e-11
-1.26271e-11
-5.42171e-12
-1.3037e-11
9.98915e-13
-1.37987e-11
7.9808e-12
-1.44331e-11
1.56314e-11
-1.49461e-11
2.40401e-11
-1.53999e-11
3.31136e-11
-1.60214e-11
4.28766e-11
-1.67966e-11
5.31177e-11
-1.73867e-11
6.4146e-11
-1.80005e-11
7.5586e-11
-1.83652e-11
8.75855e-11
-1.89388e-11
1.00082e-10
-1.95417e-11
1.12983e-10
-1.99132e-11
1.26264e-10
-2.02515e-11
1.39954e-10
-2.0646e-11
1.5398e-10
-2.09739e-11
1.68295e-10
-2.13393e-11
1.82807e-10
-2.15705e-11
1.97666e-10
-2.18129e-11
2.12496e-10
-2.17613e-11
2.27442e-10
-2.175e-11
2.42337e-10
-2.1627e-11
2.5717e-10
-2.15842e-11
2.71986e-10
-2.14752e-11
2.86788e-10
-2.12942e-11
3.01414e-10
-2.09889e-11
3.15792e-10
-2.0581e-11
3.29984e-10
-2.0277e-11
3.43722e-10
-1.96846e-11
3.57089e-10
-1.90803e-11
3.70105e-10
-1.85335e-11
3.82676e-10
-1.78946e-11
3.94729e-10
-1.71766e-11
4.0627e-10
-1.64922e-11
4.1711e-10
-1.56207e-11
4.27285e-10
-1.46973e-11
4.36773e-10
-1.37217e-11
4.45526e-10
-1.26596e-11
4.53521e-10
-1.16533e-11
4.60697e-10
-1.05712e-11
4.66976e-10
-9.45268e-12
4.7258e-10
-8.41703e-12
4.77129e-10
-6.99832e-12
4.80745e-10
-5.71086e-12
4.83365e-10
-4.32685e-12
4.85083e-10
-3.07644e-12
4.8576e-10
-1.66352e-12
4.85316e-10
-1.67734e-13
4.83885e-10
1.20361e-12
4.81438e-10
2.5929e-12
4.77966e-10
4.03069e-12
4.73412e-10
5.49458e-12
4.67799e-10
6.97449e-12
4.61135e-10
8.39314e-12
4.53456e-10
9.76757e-12
4.44635e-10
1.12928e-11
4.34836e-10
1.26076e-11
4.24067e-10
1.39701e-11
4.12242e-10
1.53828e-11
3.99506e-10
1.66827e-11
3.85712e-10
1.80492e-11
3.71183e-10
1.91087e-11
3.55646e-10
2.03519e-11
3.39251e-10
2.14829e-11
3.22056e-10
2.24945e-11
3.04167e-10
2.35645e-11
2.85414e-10
2.46303e-11
2.65999e-10
2.55913e-11
2.45918e-10
2.64924e-11
2.25266e-10
2.72608e-11
2.04017e-10
2.8009e-11
1.82237e-10
2.87071e-11
1.60002e-10
2.93186e-11
1.37337e-10
2.99099e-11
1.14363e-10
3.03564e-11
9.10944e-11
3.08124e-11
6.75877e-11
3.11705e-11
4.38747e-11
3.14798e-11
2.00703e-11
3.16183e-11
-3.79084e-12
3.16711e-11
-2.76626e-11
3.16697e-11
-5.14629e-11
3.15178e-11
-7.51337e-11
3.13582e-11
-9.86327e-11
3.11271e-11
-1.2191e-10
3.08522e-11
-1.44895e-10
3.049e-11
-1.67525e-10
3.00599e-11
-1.89744e-10
2.9557e-11
-2.11496e-10
2.89577e-11
-2.32744e-10
2.82754e-11
-2.53433e-10
2.75123e-11
-2.73516e-10
2.66611e-11
-2.92951e-10
2.57336e-11
-3.11673e-10
2.47403e-11
-3.29662e-10
2.37207e-11
-3.46855e-10
2.26451e-11
-3.63219e-10
2.15459e-11
-3.78719e-10
2.04247e-11
-3.93316e-10
1.92669e-11
-4.06991e-10
1.80722e-11
-4.19714e-10
1.68411e-11
-4.31462e-10
1.55637e-11
-4.42225e-10
1.42362e-11
-4.51993e-10
1.28629e-11
-4.60745e-10
1.14457e-11
-4.6847e-10
9.9907e-12
-4.75164e-10
8.51964e-12
-4.80828e-10
7.05656e-12
-4.8546e-10
5.59748e-12
-4.89033e-10
4.13805e-12
-4.91554e-10
2.70887e-12
-4.93037e-10
1.32288e-12
-4.93482e-10
-1.75779e-14
-4.92907e-10
-1.31245e-12
-4.91316e-10
-2.56725e-12
-4.88735e-10
-3.76922e-12
-4.85171e-10
-4.96478e-12
-4.8067e-10
-6.09278e-12
-4.75268e-10
-7.18263e-12
-4.68979e-10
-8.27039e-12
-4.61831e-10
-9.3366e-12
-4.53874e-10
-1.03644e-11
-4.45143e-10
-1.13568e-11
-4.35672e-10
-1.23274e-11
-4.25517e-10
-1.32398e-11
-4.14717e-10
-1.41187e-11
-4.03313e-10
-1.49553e-11
-3.91353e-10
-1.57454e-11
-3.78877e-10
-1.64808e-11
-3.65933e-10
-1.71483e-11
-3.5259e-10
-1.77497e-11
-3.38887e-10
-1.82824e-11
-3.24873e-10
-1.87567e-11
-3.10587e-10
-1.91748e-11
-2.96079e-10
-1.95248e-11
-2.81405e-10
-1.97877e-11
-2.66611e-10
-1.9976e-11
-2.51755e-10
-2.00895e-11
-2.36902e-10
-2.01145e-11
-2.2209e-10
-2.00899e-11
-2.07367e-10
-1.99862e-11
-1.92776e-10
-1.98191e-11
-1.78372e-10
-1.95789e-11
-1.642e-10
-1.92722e-11
-1.50303e-10
-1.89078e-11
-1.36716e-10
-1.84812e-11
-1.23499e-10
-1.79994e-11
-1.10675e-10
-1.74651e-11
-9.82911e-11
-1.68757e-11
-8.6387e-11
-1.6217e-11
-7.50078e-11
-1.55199e-11
-6.41695e-11
-1.47846e-11
-5.38943e-11
-1.40125e-11
-4.42282e-11
-1.32006e-11
-3.51872e-11
-1.23446e-11
-2.67924e-11
-1.14625e-11
-1.90703e-11
-1.05629e-11
-1.20395e-11
-9.63451e-12
-5.70802e-12
-8.68294e-12
-8.33798e-14
-7.7269e-12
4.83059e-12
-6.77298e-12
9.02039e-12
-5.78338e-12
1.24938e-11
-4.80675e-12
1.52539e-11
-3.83682e-12
1.7316e-11
-2.89372e-12
1.86995e-11
-1.97071e-12
1.94193e-11
-1.07266e-12
1.95178e-11
-2.07343e-13
1.90352e-11
5.99864e-13
1.80009e-11
1.34871e-12
1.64853e-11
2.01221e-12
1.45625e-11
2.57378e-12
1.23271e-11
3.00242e-12
9.89068e-12
3.29001e-12
7.36513e-12
3.40057e-12
4.93947e-12
3.26127e-12
2.77257e-12
2.87122e-12
1.09891e-12
2.16517e-12
8.66941e-14
1.12711e-12
-2.79424e-13
-8.79267e-12
-4.09254e-10
1.68386e-10
2.42439e-10
1.658e-10
1.7582e-10
1.47663e-10
8.0936e-11
1.2692e-10
4.89496e-11
1.03284e-10
3.44205e-11
8.24908e-11
2.28325e-11
6.39364e-11
1.42638e-11
4.88078e-11
7.96559e-12
3.62462e-11
3.09925e-12
2.62489e-11
-6.4824e-13
1.89118e-11
-3.29942e-12
1.40447e-11
-5.66724e-12
1.09957e-11
-7.95988e-12
9.63607e-12
-9.89879e-12
1.02051e-11
-1.16239e-11
1.25067e-11
-1.35366e-11
1.61829e-11
-1.55505e-11
2.12108e-11
-1.74455e-11
2.78322e-11
-1.9252e-11
3.58422e-11
-2.10384e-11
4.51142e-11
-2.3078e-11
5.55333e-11
-2.48476e-11
6.71676e-11
-2.65821e-11
8.00738e-11
-2.83069e-11
9.41013e-11
-3.00389e-11
1.09217e-10
-3.19148e-11
1.25304e-10
-3.34634e-11
1.42309e-10
-3.50042e-11
1.60343e-10
-3.64022e-11
1.79254e-10
-3.78442e-11
1.98852e-10
-3.9147e-11
2.19167e-10
-4.02235e-11
2.40202e-10
-4.12833e-11
2.61803e-10
-4.22493e-11
2.8398e-10
-4.31424e-11
3.06641e-10
-4.40023e-11
3.29704e-10
-4.46378e-11
3.53042e-10
-4.51501e-11
3.76597e-10
-4.5327e-11
4.00262e-10
-4.54188e-11
4.24037e-10
-4.54009e-11
4.47757e-10
-4.53125e-11
4.71392e-10
-4.51089e-11
4.94839e-10
-4.47432e-11
5.18068e-10
-4.42268e-11
5.40987e-10
-4.34963e-11
5.63388e-10
-4.26772e-11
5.85318e-10
-4.16157e-11
6.06666e-10
-4.04184e-11
6.27307e-10
-3.91716e-11
6.47233e-10
-3.78217e-11
6.66358e-10
-3.62931e-11
6.84497e-10
-3.46309e-11
7.01695e-10
-3.28222e-11
7.17818e-10
-3.08171e-11
7.32806e-10
-2.87143e-11
7.46606e-10
-2.6466e-11
7.59147e-10
-2.41906e-11
7.70416e-10
-2.18424e-11
7.8032e-10
-1.93633e-11
7.88682e-10
-1.67801e-11
7.9565e-10
-1.39709e-11
8.01078e-10
-1.11449e-11
8.04973e-10
-8.21554e-12
8.0714e-10
-5.23559e-12
8.07753e-10
-2.27788e-12
8.06761e-10
8.2535e-13
8.04061e-10
3.9063e-12
7.99683e-10
6.96981e-12
7.93581e-10
1.01363e-11
7.85805e-10
1.32769e-11
7.76309e-10
1.64624e-11
7.6503e-10
1.96595e-11
7.52042e-10
2.27499e-11
7.37499e-10
2.58324e-11
7.21191e-10
2.89168e-11
7.03263e-10
3.19067e-11
6.83704e-10
3.49446e-11
6.62653e-10
3.77262e-11
6.40097e-10
4.06011e-11
6.15899e-10
4.33136e-11
5.9028e-10
4.59768e-11
5.63298e-10
4.84696e-11
5.34969e-10
5.08251e-11
5.05368e-10
5.31553e-11
4.74551e-10
5.54319e-11
4.4261e-10
5.75271e-11
4.09603e-10
5.9508e-11
3.75592e-10
6.12811e-11
3.40698e-10
6.29118e-11
3.04954e-10
6.44597e-11
2.68459e-10
6.58119e-11
2.31322e-10
6.70367e-11
1.93577e-10
6.80954e-11
1.55379e-10
6.90096e-11
1.16815e-10
6.97333e-11
7.80018e-11
7.02942e-11
3.89738e-11
7.06521e-11
-1.75423e-13
7.08222e-11
-3.92886e-11
7.07772e-11
-7.83375e-11
7.05623e-11
-1.17201e-10
7.02218e-11
-1.5576e-10
6.96837e-11
-1.93907e-10
6.89961e-11
-2.31579e-10
6.81626e-11
-2.68684e-10
6.71688e-11
-3.05117e-10
6.59889e-11
-3.40809e-10
6.46481e-11
-3.75666e-10
6.31355e-11
-4.09616e-10
6.14648e-11
-4.42581e-10
5.96246e-11
-4.74489e-10
5.76413e-11
-5.05269e-10
5.55243e-11
-5.34829e-10
5.32822e-11
-5.63112e-10
5.09272e-11
-5.90055e-10
4.84899e-11
-6.15588e-10
4.59606e-11
-6.39659e-10
4.33369e-11
-6.62222e-10
4.06314e-11
-6.83234e-10
3.78541e-11
-7.02657e-10
3.49889e-11
-7.20474e-10
3.2053e-11
-7.36668e-10
2.90564e-11
-7.51213e-10
2.59939e-11
-7.64087e-10
2.28675e-11
-7.75289e-10
1.97198e-11
-7.84801e-10
1.65652e-11
-7.9261e-10
1.34064e-11
-7.98718e-10
1.02463e-11
-8.03133e-10
7.12162e-12
-8.05848e-10
4.03545e-12
-8.06872e-10
1.00819e-12
-8.06222e-10
-1.95941e-12
-8.03928e-10
-4.86227e-12
-7.99982e-10
-7.71633e-12
-7.94467e-10
-1.04788e-11
-7.87402e-10
-1.31564e-11
-7.78827e-10
-1.57592e-11
-7.68799e-10
-1.83012e-11
-7.57378e-10
-2.07574e-11
-7.44621e-10
-2.31206e-11
-7.30602e-10
-2.53787e-11
-7.15388e-10
-2.75446e-11
-6.99037e-10
-2.95917e-11
-6.81629e-10
-3.15264e-11
-6.63243e-10
-3.33431e-11
-6.4395e-10
-3.50411e-11
-6.23818e-10
-3.66121e-11
-6.02938e-10
-3.80266e-11
-5.81383e-10
-3.93045e-11
-5.59238e-10
-4.04287e-11
-5.36575e-10
-4.14199e-11
-5.13483e-10
-4.22666e-11
-4.90047e-10
-4.29622e-11
-4.6634e-10
-4.34972e-11
-4.42439e-10
-4.3879e-11
-4.18432e-10
-4.40941e-11
-3.94404e-10
-4.41416e-11
-3.70443e-10
-4.40529e-11
-3.46614e-10
-4.38175e-11
-3.23001e-10
-4.34317e-11
-2.99674e-10
-4.29053e-11
-2.76713e-10
-4.22344e-11
-2.54183e-10
-4.14387e-11
-2.3215e-10
-4.05113e-11
-2.10688e-10
-3.94571e-11
-1.8987e-10
-3.82805e-11
-1.69758e-10
-3.69876e-11
-1.50391e-10
-3.55825e-11
-1.3184e-10
-3.40684e-11
-1.14156e-10
-3.24669e-11
-9.73884e-11
-3.07797e-11
-8.15732e-11
-2.90152e-11
-6.67476e-11
-2.71677e-11
-5.29519e-11
-2.52563e-11
-4.02238e-11
-2.32917e-11
-2.85959e-11
-2.12647e-11
-1.80652e-11
-1.92146e-11
-8.65683e-12
-1.71346e-11
-3.9295e-13
-1.50368e-11
6.73581e-12
-1.29135e-11
1.27345e-11
-1.08066e-11
1.76212e-11
-8.72353e-12
2.13953e-11
-6.66782e-12
2.41003e-11
-4.67701e-12
2.578e-11
-2.7539e-12
2.64789e-11
-9.06321e-13
2.62513e-11
8.28448e-13
2.5183e-11
2.41695e-12
2.33543e-11
3.83934e-12
2.08955e-11
5.03115e-12
1.79356e-11
5.96212e-12
1.46303e-11
6.59521e-12
1.11774e-11
6.85226e-12
7.78603e-12
6.65155e-12
4.72777e-12
5.93042e-12
2.16526e-12
4.73044e-12
4.28953e-13
2.86569e-12
1.49371e-13
-1.30029e-11
-3.96249e-10
5.68177e-11
1.72617e-10
6.87823e-11
1.63856e-10
6.51037e-11
8.46158e-11
5.86932e-11
5.53598e-11
5.05909e-11
4.25273e-11
4.09742e-11
3.24545e-11
3.12369e-11
2.40015e-11
2.22516e-11
1.69559e-11
1.45576e-11
1.0789e-11
8.4092e-12
5.50485e-12
4.21664e-12
8.86108e-13
2.03966e-12
-3.48397e-12
1.67041e-12
-7.59554e-12
3.06883e-12
-1.12925e-11
6.44013e-12
-1.49979e-11
1.17287e-11
-1.88276e-11
1.87363e-11
-2.25572e-11
2.7445e-11
-2.6162e-11
3.79073e-11
-2.97092e-11
5.01056e-11
-3.32435e-11
6.39198e-11
-3.68893e-11
7.93018e-11
-4.02314e-11
9.62195e-11
-4.35055e-11
1.14699e-10
-4.6783e-11
1.34737e-10
-5.00863e-11
1.56044e-10
-5.32193e-11
1.78666e-10
-5.60852e-11
2.02556e-10
-5.88972e-11
2.27702e-10
-6.15419e-11
2.53963e-10
-6.41109e-11
2.81207e-10
-6.639e-11
3.09405e-10
-6.84193e-11
3.38463e-10
-7.03468e-11
3.68318e-10
-7.20976e-11
3.9892e-10
-7.37432e-11
4.3004e-10
-7.51212e-11
4.61611e-10
-7.62007e-11
4.93575e-10
-7.71165e-11
5.25891e-10
-7.76432e-11
5.58368e-10
-7.78925e-11
5.90962e-10
-7.80009e-11
6.23448e-10
-7.77969e-11
6.5573e-10
-7.73877e-11
6.87771e-10
-7.67893e-11
7.19471e-10
-7.59245e-11
7.50686e-10
-7.47131e-11
7.8127e-10
-7.32683e-11
8.11131e-10
-7.14761e-11
8.40171e-10
-6.94599e-11
8.68268e-10
-6.72752e-11
8.95336e-10
-6.48879e-11
9.21255e-10
-6.22124e-11
9.45899e-10
-5.92789e-11
9.69187e-10
-5.6105e-11
9.91045e-10
-5.26721e-11
1.01133e-09
-4.90041e-11
1.02999e-09
-4.51223e-11
1.04694e-09
-4.114e-11
1.06209e-09
-3.69927e-11
1.07534e-09
-3.26127e-11
1.08658e-09
-2.80128e-11
1.09582e-09
-2.32161e-11
1.10297e-09
-1.82967e-11
1.108e-09
-1.32491e-11
1.11082e-09
-8.06189e-12
1.1114e-09
-2.85849e-12
1.10979e-09
2.43776e-12
1.10588e-09
7.80875e-12
1.09963e-09
1.32145e-11
1.09107e-09
1.87062e-11
1.08013e-09
2.42193e-11
1.06686e-09
2.97351e-11
1.05126e-09
3.52593e-11
1.03333e-09
4.06828e-11
1.01309e-09
4.60614e-11
9.9059e-10
5.14132e-11
9.65854e-10
5.66466e-11
9.3897e-10
6.18285e-11
9.09825e-10
6.68686e-11
8.78603e-10
7.18212e-11
8.45322e-10
7.65868e-11
8.10078e-10
8.12144e-11
7.72907e-10
8.56479e-11
7.33857e-10
8.98869e-11
6.93077e-10
9.39392e-11
6.50663e-10
9.78445e-11
6.06706e-10
1.01482e-10
5.61304e-10
1.04902e-10
5.14524e-10
1.08055e-10
4.66495e-10
1.10946e-10
4.17347e-10
1.13615e-10
3.6718e-10
1.15983e-10
3.16122e-10
1.18096e-10
2.64292e-10
1.19928e-10
2.1182e-10
1.21476e-10
1.58811e-10
1.22736e-10
1.0542e-10
1.23684e-10
5.17836e-11
1.24291e-10
-1.99138e-12
1.24596e-10
-5.57808e-11
1.24565e-10
-1.09443e-10
1.24226e-10
-1.62832e-10
1.23609e-10
-2.15835e-10
1.22682e-10
-2.68299e-10
1.21459e-10
-3.20097e-10
1.19964e-10
-3.71116e-10
1.18188e-10
-4.21228e-10
1.16099e-10
-4.70308e-10
1.1373e-10
-5.18258e-10
1.11088e-10
-5.64972e-10
1.08177e-10
-6.10341e-10
1.04992e-10
-6.5425e-10
1.01553e-10
-6.96606e-10
9.78831e-11
-7.37306e-10
9.39818e-11
-7.76268e-10
8.98891e-11
-8.1339e-10
8.56151e-11
-8.48597e-10
8.11682e-11
-8.81817e-10
7.6553e-11
-9.12976e-10
7.179e-11
-9.42013e-10
6.68934e-11
-9.68887e-10
6.18646e-11
-9.93557e-10
5.6723e-11
-1.01599e-09
5.14871e-11
-1.03614e-09
4.61503e-11
-1.054e-09
4.07304e-11
-1.06955e-09
3.52622e-11
-1.08277e-09
2.97813e-11
-1.09365e-09
2.42901e-11
-1.1022e-09
1.87958e-11
-1.10842e-09
1.33352e-11
-1.11231e-09
7.92785e-12
-1.1139e-09
2.59764e-12
-1.11321e-09
-2.64824e-12
-1.11027e-09
-7.79711e-12
-1.10514e-09
-1.28491e-11
-1.09784e-09
-1.77715e-11
-1.08844e-09
-2.25591e-11
-1.077e-09
-2.72072e-11
-1.06357e-09
-3.17267e-11
-1.04825e-09
-3.60776e-11
-1.03111e-09
-4.0257e-11
-1.01224e-09
-4.42542e-11
-9.91732e-10
-4.80592e-11
-9.69669e-10
-5.1655e-11
-9.46153e-10
-5.50443e-11
-9.21282e-10
-5.8216e-11
-8.95159e-10
-6.11655e-11
-8.67891e-10
-6.38782e-11
-8.39574e-10
-6.63423e-11
-8.10326e-10
-6.85531e-11
-7.80249e-10
-7.05075e-11
-7.4945e-10
-7.22185e-11
-7.18052e-10
-7.36649e-11
-6.86162e-10
-7.48546e-11
-6.53883e-10
-7.57776e-11
-6.21344e-10
-7.64167e-11
-5.88645e-10
-7.67912e-11
-5.55884e-10
-7.69037e-11
-5.23187e-10
-7.67528e-11
-4.9066e-10
-7.63455e-11
-4.58404e-10
-7.56883e-11
-4.2652e-10
-7.47895e-11
-3.95114e-10
-7.36417e-11
-3.64281e-10
-7.227e-11
-3.34111e-10
-7.06781e-11
-3.04697e-10
-6.88679e-11
-2.7614e-10
-6.68362e-11
-2.4851e-10
-6.4617e-11
-2.21887e-10
-6.22037e-11
-1.96346e-10
-5.96063e-11
-1.7196e-10
-5.68526e-11
-1.48795e-10
-5.39447e-11
-1.26907e-10
-5.09023e-11
-1.06344e-10
-4.77286e-11
-8.71627e-11
-4.44381e-11
-6.94114e-11
-4.1045e-11
-5.30979e-11
-3.75793e-11
-3.82659e-11
-3.40457e-11
-2.49408e-11
-3.04583e-11
-1.31326e-11
-2.68451e-11
-2.83304e-12
-2.3214e-11
5.96469e-12
-1.96044e-11
1.32764e-11
-1.6035e-11
1.91245e-11
-1.25169e-11
2.35382e-11
-9.09275e-12
2.65805e-11
-5.79736e-12
2.83241e-11
-2.64955e-12
2.88388e-11
3.13809e-13
2.82318e-11
3.02259e-12
2.663e-11
5.43939e-12
2.41702e-11
7.49064e-12
2.1022e-11
9.11085e-12
1.73915e-11
1.02255e-11
1.34946e-11
1.07482e-11
9.58321e-12
1.05632e-11
5.91446e-12
9.60129e-12
2.7985e-12
7.84864e-12
6.48323e-13
5.01626e-12
7.9667e-13
-3.0801e-11
-3.65446e-10
2.15877e-11
1.20225e-10
3.55923e-11
1.49854e-10
3.41575e-11
8.605e-11
3.00537e-11
5.94609e-11
2.53944e-11
4.71877e-11
1.99522e-11
3.78956e-11
1.41788e-11
2.9779e-11
8.83762e-12
2.22935e-11
4.34731e-12
1.52845e-11
1.13008e-12
8.71576e-12
-3.94183e-13
2.41453e-12
-1.3212e-13
-3.75213e-12
1.97131e-12
-9.69597e-12
6.11549e-12
-1.54372e-11
1.23491e-11
-2.12316e-11
2.05913e-11
-2.70652e-11
3.08112e-11
-3.2782e-11
4.30508e-11
-3.83965e-11
5.74309e-11
-4.40952e-11
7.38186e-11
-4.96297e-11
9.20416e-11
-5.51115e-11
1.12178e-10
-6.03703e-11
1.3428e-10
-6.55997e-11
1.58235e-10
-7.07412e-11
1.83871e-10
-7.57193e-11
2.11137e-10
-8.04842e-11
2.40046e-10
-8.49988e-11
2.70532e-10
-8.93775e-11
3.02478e-10
-9.34923e-11
3.35772e-10
-9.74044e-11
3.70303e-10
-1.00916e-10
4.05989e-10
-1.0411e-10
4.42757e-10
-1.0711e-10
4.80464e-10
-1.09805e-10
5.1894e-10
-1.12224e-10
5.58119e-10
-1.14297e-10
5.97871e-10
-1.15956e-10
6.38035e-10
-1.17283e-10
6.78606e-10
-1.18211e-10
7.19411e-10
-1.18702e-10
7.60241e-10
-1.18832e-10
8.00992e-10
-1.18546e-10
8.41513e-10
-1.17914e-10
8.81647e-10
-1.16921e-10
9.21302e-10
-1.15576e-10
9.60333e-10
-1.13748e-10
9.98577e-10
-1.1151e-10
1.0359e-09
-1.08801e-10
1.07221e-09
-1.05767e-10
1.10728e-09
-1.02343e-10
1.14099e-09
-9.85999e-11
1.17328e-09
-9.45033e-11
1.20398e-09
-8.99857e-11
1.23297e-09
-8.50917e-11
1.26012e-09
-7.98243e-11
1.28532e-09
-7.4199e-11
1.30847e-09
-6.82803e-11
1.32943e-09
-6.20986e-11
1.34809e-09
-5.56592e-11
1.36437e-09
-4.88925e-11
1.37819e-09
-4.18353e-11
1.38948e-09
-3.45019e-11
1.39813e-09
-2.69431e-11
1.4041e-09
-1.92196e-11
1.40738e-09
-1.13416e-11
1.40781e-09
-3.2875e-12
1.4054e-09
4.84925e-12
1.40013e-09
1.30796e-11
1.39193e-09
2.14156e-11
1.3808e-09
2.98292e-11
1.36669e-09
3.83129e-11
1.34967e-09
4.67623e-11
1.32974e-09
5.51938e-11
1.30687e-09
6.3553e-11
1.28109e-09
7.18366e-11
1.25249e-09
8.00167e-11
1.22101e-09
8.81176e-11
1.18677e-09
9.607e-11
1.14982e-09
1.03825e-10
1.11023e-09
1.1141e-10
1.06805e-09
1.18766e-10
1.02337e-09
1.2589e-10
9.76281e-10
1.32728e-10
9.2688e-10
1.39285e-10
8.75286e-10
1.45536e-10
8.21643e-10
1.51498e-10
7.66026e-10
1.57105e-10
7.08581e-10
1.62345e-10
6.49431e-10
1.67203e-10
5.88719e-10
1.71657e-10
5.26595e-10
1.75735e-10
4.63191e-10
1.79385e-10
3.98673e-10
1.82619e-10
3.33172e-10
1.85432e-10
2.66852e-10
1.87795e-10
1.99902e-10
1.89685e-10
1.32463e-10
1.91124e-10
6.46769e-11
1.92074e-10
-3.27296e-12
1.92542e-10
-7.12158e-11
1.92508e-10
-1.39006e-10
1.92016e-10
-2.06455e-10
1.91056e-10
-2.73414e-10
1.89639e-10
-3.39702e-10
1.87751e-10
-4.05165e-10
1.85429e-10
-4.69642e-10
1.82663e-10
-5.3299e-10
1.79448e-10
-5.95052e-10
1.75794e-10
-6.5569e-10
1.71726e-10
-7.14767e-10
1.6725e-10
-7.72135e-10
1.62361e-10
-8.27678e-10
1.57099e-10
-8.81263e-10
1.51468e-10
-9.32776e-10
1.45495e-10
-9.82093e-10
1.39208e-10
-1.0291e-09
1.32628e-10
-1.07371e-09
1.25775e-10
-1.11582e-09
1.18661e-10
-1.15535e-09
1.11318e-10
-1.19221e-09
1.03759e-10
-1.22636e-09
9.60128e-11
-1.25774e-09
8.80993e-11
-1.28628e-09
8.00307e-11
-1.31195e-09
7.18256e-11
-1.33473e-09
6.35078e-11
-1.35459e-09
5.51214e-11
-1.37152e-09
4.67095e-11
-1.38551e-09
3.82783e-11
-1.39656e-09
2.98423e-11
-1.40467e-09
2.14469e-11
-1.40986e-09
1.31231e-11
-1.41216e-09
4.89754e-12
-1.41161e-09
-3.20645e-12
-1.40823e-09
-1.11701e-11
-1.40209e-09
-1.89864e-11
-1.39325e-09
-2.66132e-11
-1.38177e-09
-3.40411e-11
-1.36773e-09
-4.12515e-11
-1.35121e-09
-4.82389e-11
-1.33232e-09
-5.49706e-11
-1.31114e-09
-6.1437e-11
-1.28778e-09
-6.76181e-11
-1.26235e-09
-7.34893e-11
-1.23497e-09
-7.90392e-11
-1.20575e-09
-8.42649e-11
-1.17482e-09
-8.91515e-11
-1.1423e-09
-9.36853e-11
-1.10832e-09
-9.78547e-11
-1.07302e-09
-1.01639e-10
-1.03653e-09
-1.05044e-10
-9.98989e-10
-1.08054e-10
-9.60529e-10
-1.10678e-10
-9.21288e-10
-1.12907e-10
-8.81411e-10
-1.14733e-10
-8.41032e-10
-1.16156e-10
-8.00298e-10
-1.17149e-10
-7.59345e-10
-1.17745e-10
-7.18306e-10
-1.17945e-10
-6.7732e-10
-1.17741e-10
-6.36522e-10
-1.17143e-10
-5.96041e-10
-1.1617e-10
-5.56004e-10
-1.14828e-10
-5.16535e-10
-1.1311e-10
-4.77759e-10
-1.11044e-10
-4.39789e-10
-1.08645e-10
-4.0275e-10
-1.05906e-10
-3.66745e-10
-1.02841e-10
-3.31878e-10
-9.94825e-11
-2.98246e-10
-9.58336e-11
-2.65939e-10
-9.19112e-11
-2.35053e-10
-8.77399e-11
-2.05658e-10
-8.33398e-11
-1.77828e-10
-7.87318e-11
-1.51631e-10
-7.39253e-11
-1.27131e-10
-6.8939e-11
-1.04373e-10
-6.38047e-11
-8.33924e-11
-5.85592e-11
-6.42298e-11
-5.32062e-11
-4.69101e-11
-4.77769e-11
-3.14475e-11
-4.23079e-11
-1.7834e-11
-3.68274e-11
-6.05736e-12
-3.13803e-11
3.88797e-12
-2.59804e-11
1.20369e-11
-2.06675e-11
1.84333e-11
-1.54907e-11
2.31516e-11
-1.05159e-11
2.62845e-11
-5.78218e-12
2.79193e-11
-1.32203e-12
2.81657e-11
2.77424e-12
2.71857e-11
6.41853e-12
2.51276e-11
9.54935e-12
2.21944e-11
1.20445e-11
1.86138e-11
1.38054e-11
1.46331e-11
1.47285e-11
1.0519e-11
1.46786e-11
6.57388e-12
1.35485e-11
3.18004e-12
1.12432e-11
7.70906e-13
7.42402e-12
1.56642e-12
-3.08742e-11
-3.3457e-10
3.81126e-12
8.55368e-11
2.06025e-11
1.33066e-10
2.10231e-11
8.56331e-11
1.7798e-11
6.26867e-11
1.40939e-11
5.08911e-11
1.03277e-11
4.16649e-11
6.75818e-12
3.33452e-11
3.68918e-12
2.53666e-11
1.5087e-12
1.74599e-11
6.90855e-13
9.53879e-12
1.59805e-12
1.50287e-12
4.29579e-12
-6.44803e-12
8.95201e-12
-1.4354e-11
1.58575e-11
-2.23453e-11
2.49649e-11
-3.0336e-11
3.62189e-11
-3.8324e-11
4.9768e-11
-4.6326e-11
6.56888e-11
-5.43211e-11
8.39024e-11
-6.23084e-11
1.0438e-10
-7.01075e-11
1.27062e-10
-7.77989e-11
1.51993e-10
-8.52974e-11
1.79094e-10
-9.27055e-11
2.08316e-10
-9.99605e-11
2.39512e-10
-1.06912e-10
2.72599e-10
-1.13574e-10
3.07585e-10
-1.1998e-10
3.44422e-10
-1.26217e-10
3.82948e-10
-1.3202e-10
4.22989e-10
-1.37442e-10
4.64489e-10
-1.4242e-10
5.0737e-10
-1.46986e-10
5.51468e-10
-1.51205e-10
5.96651e-10
-1.5499e-10
6.42741e-10
-1.58309e-10
6.89593e-10
-1.6115e-10
7.371e-10
-1.63467e-10
7.85142e-10
-1.65321e-10
8.33578e-10
-1.6665e-10
8.8223e-10
-1.67355e-10
9.3094e-10
-1.67538e-10
9.79493e-10
-1.67103e-10
1.02774e-09
-1.66161e-10
1.07555e-09
-1.64727e-10
1.12273e-09
-1.62766e-10
1.16913e-09
-1.6015e-10
1.2146e-09
-1.56978e-10
1.25896e-09
-1.53158e-10
1.30201e-09
-1.48823e-10
1.34364e-09
-1.43967e-10
1.38366e-09
-1.38621e-10
1.42191e-09
-1.32752e-10
1.45825e-09
-1.26327e-10
1.49253e-09
-1.19373e-10
1.52462e-09
-1.11913e-10
1.55436e-09
-1.03938e-10
1.58163e-09
-9.55543e-11
1.60629e-09
-8.67602e-11
1.62821e-09
-7.75728e-11
1.64726e-09
-6.79569e-11
1.66336e-09
-5.79354e-11
1.67644e-09
-4.75808e-11
1.68641e-09
-3.69086e-11
1.69315e-09
-2.59669e-11
1.69661e-09
-1.48024e-11
1.69674e-09
-3.41137e-12
1.69346e-09
8.12602e-12
1.68672e-09
1.98185e-11
1.67648e-09
3.16629e-11
1.66272e-09
4.35889e-11
1.64546e-09
5.5565e-11
1.6247e-09
6.75257e-11
1.60043e-09
7.94543e-11
1.57266e-09
9.13188e-11
1.54144e-09
1.03069e-10
1.50677e-09
1.14678e-10
1.46873e-09
1.26154e-10
1.42737e-09
1.37428e-10
1.38274e-09
1.48454e-10
1.33494e-09
1.59209e-10
1.28407e-09
1.69636e-10
1.23025e-09
1.79713e-10
1.17355e-09
1.89426e-10
1.11409e-09
1.98741e-10
1.052e-09
2.07624e-10
9.87435e-10
2.1606e-10
9.20529e-10
2.24013e-10
8.51443e-10
2.31435e-10
7.80316e-10
2.38336e-10
7.07298e-10
2.44674e-10
6.32598e-10
2.5043e-10
5.56371e-10
2.55611e-10
4.7881e-10
2.6018e-10
4.00085e-10
2.64155e-10
3.20394e-10
2.67487e-10
2.39927e-10
2.70157e-10
1.5887e-10
2.72181e-10
7.74217e-11
2.73519e-10
-4.22373e-12
2.74185e-10
-8.5882e-11
2.74167e-10
-1.67334e-10
2.73466e-10
-2.48389e-10
2.72109e-10
-3.28839e-10
2.70091e-10
-4.08507e-10
2.67423e-10
-4.87184e-10
2.64106e-10
-5.64694e-10
2.60171e-10
-6.40849e-10
2.55605e-10
-7.15479e-10
2.50423e-10
-7.88406e-10
2.44649e-10
-8.59454e-10
2.38298e-10
-9.28466e-10
2.31376e-10
-9.95287e-10
2.2392e-10
-1.05977e-09
2.15947e-10
-1.12176e-09
2.07489e-10
-1.18113e-09
1.9858e-10
-1.23775e-09
1.89247e-10
-1.29149e-09
1.79515e-10
-1.34225e-09
1.6942e-10
-1.38992e-09
1.58993e-10
-1.43442e-09
1.48263e-10
-1.47568e-09
1.37265e-10
-1.5136e-09
1.26024e-10
-1.54814e-09
1.14571e-10
-1.57925e-09
1.02938e-10
-1.6069e-09
9.11549e-11
-1.63106e-09
7.92764e-11
-1.6517e-09
6.73524e-11
-1.66882e-09
5.53972e-11
-1.68242e-09
4.34396e-11
-1.69251e-09
3.15377e-11
-1.69911e-09
1.97274e-11
-1.70226e-09
8.04339e-12
-1.70199e-09
-3.47549e-12
-1.69835e-09
-1.48036e-11
-1.69142e-09
-2.59195e-11
-1.68125e-09
-3.6778e-11
-1.66794e-09
-4.73561e-11
-1.65157e-09
-5.76246e-11
-1.63224e-09
-6.75643e-11
-1.61007e-09
-7.71409e-11
-1.58517e-09
-8.63445e-11
-1.55765e-09
-9.51342e-11
-1.52766e-09
-1.03485e-10
-1.49531e-09
-1.11383e-10
-1.46076e-09
-1.18817e-10
-1.42416e-09
-1.25759e-10
-1.38564e-09
-1.322e-10
-1.34537e-09
-1.38124e-10
-1.3035e-09
-1.43507e-10
-1.2602e-09
-1.48348e-10
-1.21561e-09
-1.52644e-10
-1.16991e-09
-1.56382e-10
-1.12326e-09
-1.5956e-10
-1.07582e-09
-1.62174e-10
-1.02777e-09
-1.64201e-10
-9.79268e-10
-1.65652e-10
-9.30478e-10
-1.66537e-10
-8.81567e-10
-1.66859e-10
-8.32691e-10
-1.66618e-10
-7.84011e-10
-1.65824e-10
-7.35676e-10
-1.64506e-10
-6.87843e-10
-1.62662e-10
-6.40661e-10
-1.60291e-10
-5.94272e-10
-1.5743e-10
-5.48823e-10
-1.54093e-10
-5.04448e-10
-1.50281e-10
-4.61266e-10
-1.46022e-10
-4.19407e-10
-1.41339e-10
-3.78985e-10
-1.36253e-10
-3.40114e-10
-1.30783e-10
-3.02893e-10
-1.24962e-10
-2.6741e-10
-1.18823e-10
-2.33759e-10
-1.12383e-10
-2.02013e-10
-1.05672e-10
-1.72244e-10