/*--------------------------------*- C++ -*----------------------------------*\
| =========                 |                                                 |
| \\      /  F ield         | OpenFOAM: The Open Source CFD Toolbox           |
|  \\    /   O peration     | Version:  3.0.1                                 |
|   \\  /    A nd           | Web:      www.OpenFOAM.org                      |
|    \\/     M anipulation  |                                                 |
\*---------------------------------------------------------------------------*/
FoamFile
{
    version     2.0;
    format      ascii;
    class       volScalarField;
    location    "1";
    object      C;
}
// * * * * * * * * * * * * * * * * * * * * * * * * * * * * * * * * * * * * * //

dimensions      [0 -3 0 0 1 0 0];

internalField   nonuniform List<scalar> 
80000
(
6.18354e-09
1.86586e-08
3.14468e-08
4.47733e-08
5.88602e-08
7.39403e-08
9.02565e-08
1.08064e-07
1.27635e-07
1.49257e-07
1.73241e-07
1.99919e-07
2.29651e-07
2.62824e-07
2.99857e-07
3.41206e-07
3.87362e-07
4.38856e-07
4.96265e-07
5.60211e-07
6.31367e-07
7.1046e-07
7.98272e-07
8.95646e-07
1.00349e-06
1.12277e-06
1.25453e-06
1.39988e-06
1.56001e-06
1.73619e-06
1.92976e-06
2.14215e-06
2.37486e-06
2.6295e-06
2.90773e-06
3.21133e-06
3.54213e-06
3.90207e-06
4.29315e-06
4.71745e-06
5.17713e-06
5.67441e-06
6.21157e-06
6.79091e-06
7.41481e-06
8.08565e-06
8.80582e-06
9.57772e-06
1.04037e-05
1.12861e-05
1.22272e-05
1.32292e-05
1.4294e-05
1.54237e-05
1.66199e-05
1.78841e-05
1.92178e-05
2.06219e-05
2.20971e-05
2.36438e-05
2.52619e-05
2.69512e-05
2.87107e-05
3.0539e-05
3.24344e-05
3.43945e-05
3.64163e-05
3.84964e-05
4.06306e-05
4.28144e-05
4.50423e-05
4.73087e-05
4.96071e-05
5.19305e-05
5.42715e-05
5.66221e-05
5.89741e-05
6.13187e-05
6.36469e-05
6.59494e-05
6.8217e-05
7.044e-05
7.2609e-05
7.47146e-05
7.67476e-05
7.86989e-05
8.056e-05
8.23224e-05
8.39783e-05
8.55204e-05
8.69418e-05
8.82362e-05
8.93981e-05
9.04225e-05
9.13049e-05
9.20417e-05
9.26298e-05
9.30668e-05
9.3351e-05
9.34812e-05
9.3457e-05
9.32785e-05
9.29466e-05
9.24626e-05
9.18287e-05
9.10474e-05
9.01223e-05
8.90572e-05
8.78567e-05
8.65261e-05
8.50712e-05
8.34983e-05
8.18144e-05
8.0027e-05
7.81439e-05
7.61735e-05
7.41245e-05
7.20058e-05
6.98267e-05
6.75964e-05
6.53244e-05
6.302e-05
6.06924e-05
5.83509e-05
5.60041e-05
5.36608e-05
5.1329e-05
4.90165e-05
4.67307e-05
4.44781e-05
4.22652e-05
4.00975e-05
3.79802e-05
3.59178e-05
3.39142e-05
3.19728e-05
3.00963e-05
2.8287e-05
2.65467e-05
2.48765e-05
2.32773e-05
2.17493e-05
2.02925e-05
1.89065e-05
1.75904e-05
1.63432e-05
1.51636e-05
1.40499e-05
1.30005e-05
1.20134e-05
1.10865e-05
1.02176e-05
9.40453e-06
8.64491e-06
7.93638e-06
7.27656e-06
6.66307e-06
6.09352e-06
5.56559e-06
5.07696e-06
4.62537e-06
4.20863e-06
3.82461e-06
3.47125e-06
3.14656e-06
2.84864e-06
2.57566e-06
2.32588e-06
2.09765e-06
1.8894e-06
1.69963e-06
1.52694e-06
1.37001e-06
1.22759e-06
1.09851e-06
9.81672e-07
8.7606e-07
7.80714e-07
6.94745e-07
6.17324e-07
5.47683e-07
4.85108e-07
4.28939e-07
3.78564e-07
3.33418e-07
2.9298e-07
2.56767e-07
2.24334e-07
1.9527e-07
1.69194e-07
1.45755e-07
1.24628e-07
1.05507e-07
8.81113e-08
7.21745e-08
5.7447e-08
4.36917e-08
3.06818e-08
1.8199e-08
6.03096e-09
1.85578e-08
5.59926e-08
9.43729e-08
1.34363e-07
1.76636e-07
2.21888e-07
2.70849e-07
3.24285e-07
3.83009e-07
4.47889e-07
5.19854e-07
5.99903e-07
6.89113e-07
7.88647e-07
8.99764e-07
1.02382e-06
1.1623e-06
1.3168e-06
1.48904e-06
1.68089e-06
1.89436e-06
2.13164e-06
2.39508e-06
2.68719e-06
3.01069e-06
3.36851e-06
3.76375e-06
4.19976e-06
4.6801e-06
5.20856e-06
5.78918e-06
6.42622e-06
7.12422e-06
7.88796e-06
8.72246e-06
9.63301e-06
1.06251e-05
1.17047e-05
1.28775e-05
1.415e-05
1.55286e-05
1.70199e-05
1.86308e-05
2.03682e-05
2.22392e-05
2.42509e-05
2.64106e-05
2.87253e-05
3.12023e-05
3.38484e-05
3.66705e-05
3.9675e-05
4.28682e-05
4.62557e-05
4.98427e-05
5.36339e-05
5.76332e-05
6.18436e-05
6.62673e-05
7.09054e-05
7.57579e-05
8.08236e-05
8.60998e-05
9.15826e-05
9.72665e-05
0.000103144
0.000109207
0.000115445
0.000121845
0.000128394
0.000135075
0.000141872
0.000148764
0.000155731
0.000162751
0.0001698
0.000176853
0.000183883
0.000190865
0.000197769
0.000204568
0.000211233
0.000217736
0.000224049
0.000230144
0.000235993
0.000241572
0.000246855
0.000251818
0.00025644
0.0002607
0.00026458
0.000268062
0.000271131
0.000273775
0.000275983
0.000277745
0.000279054
0.000279905
0.000280295
0.000280222
0.000279688
0.000278693
0.000277242
0.000275343
0.000273001
0.000270229
0.000267037
0.000263439
0.000259451
0.00025509
0.000250376
0.000245328
0.00023997
0.000234325
0.000228418
0.000222276
0.000215924
0.00020939
0.000202703
0.000195891
0.000188981
0.000182002
0.000174981
0.000167944
0.000160917
0.000153925
0.00014699
0.000140135
0.000133381
0.000126745
0.000120244
0.000113895
0.00010771
0.000101702
9.58802e-05
9.02532e-05
8.48277e-05
7.96089e-05
7.46006e-05
6.98051e-05
6.52232e-05
6.08547e-05
5.66985e-05
5.2752e-05
4.90121e-05
4.54748e-05
4.21354e-05
3.89886e-05
3.60285e-05
3.32491e-05
3.06436e-05
2.82055e-05
2.59276e-05
2.38029e-05
2.18242e-05
1.99845e-05
1.82765e-05
1.66933e-05
1.52279e-05
1.38736e-05
1.26239e-05
1.14722e-05
1.04124e-05
9.43862e-06
8.5451e-06
7.72636e-06
6.97721e-06
6.29267e-06
5.66802e-06
5.09882e-06
4.58084e-06
4.11011e-06
3.6829e-06
3.2957e-06
2.94522e-06
2.62841e-06
2.34238e-06
2.08448e-06
1.85221e-06
1.64329e-06
1.45555e-06
1.28704e-06
1.1359e-06
1.00045e-06
8.79122e-07
7.70469e-07
6.73155e-07
5.85948e-07
5.07708e-07
4.37378e-07
3.73982e-07
3.16608e-07
2.64408e-07
2.16586e-07
1.72392e-07
1.31114e-07
9.20739e-08
5.46148e-08
1.80993e-08
3.09415e-08
9.33608e-08
1.57371e-07
2.24064e-07
2.94562e-07
3.70025e-07
4.51669e-07
5.40772e-07
6.38691e-07
7.46871e-07
8.66861e-07
1.00033e-06
1.14906e-06
1.315e-06
1.50025e-06
1.70707e-06
1.93792e-06
2.19545e-06
2.48256e-06
2.80234e-06
3.15816e-06
3.55364e-06
3.9927e-06
4.47953e-06
5.01867e-06
5.61496e-06
6.27361e-06
7.00016e-06
7.80054e-06
8.68108e-06
9.64848e-06
1.07099e-05
1.18728e-05
1.31452e-05
1.45354e-05
1.60523e-05
1.7705e-05
1.95032e-05
2.14569e-05
2.35765e-05
2.58728e-05
2.83567e-05
3.10397e-05
3.39334e-05
3.70495e-05
4.04e-05
4.39967e-05
4.78517e-05
5.19768e-05
5.63836e-05
6.10834e-05
6.6087e-05
7.14047e-05
7.7046e-05
8.30196e-05
8.93332e-05
9.59934e-05
0.000103005
0.000110372
0.000118096
0.000126177
0.000134613
0.0001434
0.000152531
0.000161997
0.000171786
0.000181884
0.000192272
0.000202931
0.000213837
0.000224964
0.000236282
0.00024776
0.000259363
0.000271053
0.000282791
0.000294535
0.000306242
0.000317866
0.000329361
0.00034068
0.000351775
0.0003626
0.000373108
0.000383252
0.000392987
0.00040227
0.00041106
0.000419317
0.000427006
0.000434091
0.000440543
0.000446333
0.000451437
0.000455833
0.000459503
0.000462432
0.000464608
0.000466023
0.00046667
0.000466548
0.000465658
0.000464004
0.000461592
0.000458433
0.000454539
0.000449929
0.00044462
0.000438636
0.000432003
0.000424749
0.000416905
0.000408508
0.000399592
0.000390198
0.000380368
0.000370144
0.000359571
0.000348696
0.000337564
0.000326223
0.000314719
0.000303098
0.000291407
0.00027969
0.000267989
0.000256345
0.000244798
0.000233382
0.000222134
0.000211082
0.000200257
0.000189684
0.000179384
0.000169378
0.000159683
0.000150312
0.000141277
0.000132586
0.000124245
0.000116259
0.000108629
0.000101355
9.44333e-05
8.78614e-05
8.16335e-05
7.57429e-05
7.01819e-05
6.49415e-05
6.00122e-05
5.53835e-05
5.10447e-05
4.69843e-05
4.31908e-05
3.96523e-05
3.63571e-05
3.32931e-05
3.04485e-05
2.78117e-05
2.5371e-05
2.31154e-05
2.10337e-05
1.91153e-05
1.73501e-05
1.57279e-05
1.42395e-05
1.28756e-05
1.16275e-05
1.0487e-05
9.44635e-06
8.49799e-06
7.63493e-06
6.85058e-06
6.13871e-06
5.49349e-06
4.90944e-06
4.38147e-06
3.90478e-06
3.47496e-06
3.08785e-06
2.73961e-06
2.4267e-06
2.1458e-06
1.89387e-06
1.66808e-06
1.46581e-06
1.28468e-06
1.12244e-06
9.77048e-07
8.466e-07
7.29339e-07
6.23633e-07
5.27967e-07
4.40926e-07
3.61182e-07
2.87487e-07
2.18654e-07
1.5355e-07
9.10812e-08
3.01848e-08
4.33537e-08
1.3081e-07
2.20502e-07
3.13956e-07
4.1274e-07
5.18478e-07
6.32871e-07
7.5771e-07
8.94893e-07
1.04645e-06
1.21453e-06
1.40149e-06
1.60983e-06
1.84226e-06
2.10171e-06
2.39137e-06
2.71467e-06
3.07532e-06
3.47736e-06
3.92513e-06
4.42334e-06
4.97706e-06
5.59175e-06
6.2733e-06
7.02803e-06
7.86272e-06
8.78465e-06
9.80157e-06
1.09218e-05
1.21541e-05
1.35079e-05
1.49932e-05
1.66204e-05
1.84008e-05
2.03459e-05
2.24682e-05
2.47804e-05
2.72961e-05
3.00292e-05
3.29942e-05
3.62062e-05
3.96806e-05
4.34334e-05
4.74806e-05
5.18389e-05
5.65249e-05
6.15552e-05
6.69465e-05
7.27155e-05
7.88783e-05
8.54508e-05
9.24481e-05
9.98845e-05
0.000107774
0.000116127
0.000124956
0.00013427
0.000144075
0.000154378
0.000165179
0.00017648
0.000188278
0.000200566
0.000213335
0.000226573
0.000240263
0.000254384
0.000268912
0.000283818
0.00029907
0.00031463
0.000330458
0.000346508
0.000362733
0.000379079
0.000395491
0.000411911
0.000428277
0.000444527
0.000460595
0.000476415
0.000491922
0.000507049
0.00052173
0.0005359
0.000549498
0.000562463
0.000574737
0.000586266
0.000596998
0.000606887
0.000615891
0.000623969
0.000631089
0.00063722
0.000642338
0.000646422
0.000649455
0.000651426
0.000652327
0.000652156
0.000650913
0.000648605
0.000645239
0.000640832
0.0006354
0.000628967
0.000621559
0.000613208
0.00060395
0.000593824
0.000582874
0.000571148
0.000558698
0.000545578
0.000531847
0.000517563
0.000502791
0.000487594
0.000472036
0.000456185
0.000440105
0.000423861
0.000407517
0.000391135
0.000374775
0.000358495
0.000342348
0.000326386
0.000310656
0.000295203
0.000280065
0.000265278
0.000250875
0.000236883
0.000223325
0.000210221
0.000197586
0.000185433
0.00017377
0.000162602
0.000151933
0.00014176
0.000132081
0.000122892
0.000114183
0.000105946
9.81693e-05
9.08414e-05
8.39483e-05
7.74756e-05
7.1408e-05
6.57299e-05
6.04248e-05
5.54763e-05
5.08678e-05
4.65827e-05
4.26042e-05
3.89162e-05
3.55025e-05
3.23474e-05
2.94356e-05
2.67521e-05
2.42827e-05
2.20134e-05
1.99309e-05
1.80227e-05
1.62765e-05
1.46807e-05
1.32245e-05
1.18973e-05
1.06895e-05
9.59181e-06
8.59548e-06
7.69237e-06
6.87486e-06
6.13578e-06
5.46847e-06
4.86672e-06
4.32474e-06
3.83717e-06
3.39903e-06
3.0057e-06
2.6529e-06
2.3367e-06
2.05343e-06
1.79974e-06
1.5725e-06
1.36885e-06
1.18613e-06
1.02186e-06
8.73783e-07
7.3976e-07
6.17815e-07
5.06089e-07
4.02834e-07
3.06388e-07
2.15164e-07
1.27631e-07
4.2298e-08
5.58043e-08
1.68375e-07
2.83828e-07
4.04124e-07
5.31277e-07
6.67378e-07
8.14611e-07
9.7528e-07
1.15183e-06
1.34685e-06
1.56314e-06
1.8037e-06
2.07175e-06
2.37078e-06
2.70456e-06
3.07717e-06
3.49303e-06
3.95691e-06
4.47398e-06
5.04984e-06
5.69051e-06
6.40252e-06
7.19289e-06
8.06916e-06
9.03945e-06
1.01125e-05
1.12975e-05
1.26046e-05
1.40444e-05
1.56282e-05
1.7368e-05
1.92765e-05
2.13675e-05
2.36549e-05
2.6154e-05
2.88805e-05
3.18508e-05
3.50823e-05
3.85929e-05
4.24013e-05
4.65267e-05
5.09889e-05
5.58084e-05
6.1006e-05
6.66027e-05
7.262e-05
7.90793e-05
8.60021e-05
9.34095e-05
0.000101323
0.000109761
0.000118746
0.000128294
0.000138422
0.000149148
0.000160484
0.000172442
0.000185031
0.000198258
0.000212127
0.000226637
0.000241784
0.000257561
0.000273957
0.000290954
0.000308531
0.000326661
0.000345314
0.000364453
0.000384034
0.000404012
0.000424332
0.000444938
0.000465765
0.000486748
0.000507815
0.000528889
0.000549892
0.000570744
0.00059136
0.000611655
0.000631546
0.000650945
0.00066977
0.000687937
0.000705367
0.000721981
0.000737706
0.000752473
0.000766217
0.000778878
0.000790402
0.00080074
0.00080985
0.000817692
0.000824237
0.000829458
0.000833335
0.000835853
0.000837003
0.000836781
0.000835189
0.000832234
0.000827928
0.000822288
0.000815337
0.000807104
0.000797623
0.000786933
0.000775079
0.000762112
0.000748087
0.000733066
0.000717113
0.000700299
0.000682697
0.000664385
0.000645443
0.000625953
0.000605998
0.000585663
0.000565032
0.000544188
0.000523214
0.000502189
0.000481191
0.000460294
0.000439567
0.000419076
0.000398883
0.000379044
0.000359609
0.000340626
0.000322135
0.00030417
0.000286763
0.000269939
0.000253718
0.000238115
0.000223141
0.000208804
0.000195106
0.000182046
0.00016962
0.000157822
0.000146641
0.000136066
0.000126083
0.000116674
0.000107825
9.95144e-05
9.17243e-05
8.44339e-05
7.76224e-05
7.12686e-05
6.53511e-05
5.98486e-05
5.47398e-05
5.00038e-05
4.56198e-05
4.15678e-05
3.78279e-05
3.43813e-05
3.12093e-05
2.82943e-05
2.56192e-05
2.31676e-05
2.09241e-05
1.88738e-05
1.70026e-05
1.52972e-05
1.37451e-05
1.23343e-05
1.10537e-05
9.89292e-06
8.84203e-06
7.89192e-06
7.034e-06
6.26032e-06
5.56344e-06
4.93648e-06
4.37303e-06
3.86718e-06
3.41343e-06
3.00671e-06
2.64234e-06
2.31599e-06
2.02366e-06
1.76165e-06
1.52654e-06
1.31518e-06
1.12463e-06
9.52159e-07
7.95222e-07
6.5143e-07
5.18532e-07
3.94393e-07
2.7697e-07
1.64295e-07
5.44494e-08
6.83061e-08
2.06093e-07
3.47409e-07
4.94651e-07
6.50283e-07
8.16858e-07
9.97048e-07
1.19367e-06
1.4097e-06
1.64833e-06
1.91297e-06
2.20726e-06
2.53517e-06
2.90095e-06
3.30921e-06
3.76492e-06
4.27349e-06
4.84074e-06
5.47299e-06
6.17706e-06
6.96032e-06
7.83072e-06
8.79682e-06
9.86785e-06
1.10537e-05
1.2365e-05
1.38131e-05
1.54102e-05
1.71692e-05
1.91041e-05
2.12293e-05
2.35607e-05
2.61145e-05
2.89082e-05
3.19601e-05
3.52894e-05
3.89164e-05
4.28619e-05
4.7148e-05
5.17973e-05
5.68334e-05
6.22804e-05
6.81632e-05
7.45072e-05
8.13381e-05
8.86821e-05
9.65652e-05
0.000105014
0.000114053
0.00012371
0.000134008
0.000144971
0.000156622
0.000168982
0.00018207
0.000195903
0.000210494
0.000225856
0.000241997
0.00025892
0.000276625
0.000295109
0.000314361
0.000334368
0.000355108
0.000376557
0.000398681
0.000421442
0.000444794
0.000468687
0.000493062
0.000517855
0.000542994
0.000568403
0.000593998
0.000619693
0.000645395
0.000671007
0.000696431
0.000721563
0.000746301
0.000770539
0.000794175
0.000817105
0.000839228
0.000860448
0.000880669
0.000899802
0.000917765
0.000934477
0.000949868
0.000963873
0.000976433
0.000987496
0.000997018
0.00100496
0.0010113
0.001016
0.00101905
0.00102044
0.00102017
0.00101823
0.00101464
0.00100941
0.00100256
0.000994117
0.000984114
0.000972593
0.000959601
0.000945191
0.000929423
0.000912366
0.000894091
0.000874678
0.000854211
0.000832781
0.00081048
0.000787407
0.000763661
0.000739344
0.000714559
0.000689409
0.000663996
0.000638421
0.000612781
0.000587171
0.000561681
0.000536397
0.0005114
0.000486764
0.00046256
0.000438848
0.000415686
0.000393124
0.000371205
0.000349966
0.000329438
0.000309645
0.000290607
0.000272337
0.000254843
0.000238129
0.000222194
0.000207033
0.000192638
0.000178996
0.000166093
0.000153911
0.000142432
0.000131633
0.000121493
0.000111987
0.000103091
9.47788e-05
8.70251e-05
7.98035e-05
7.30882e-05
6.6853e-05
6.10725e-05
5.57215e-05
5.07754e-05
4.62101e-05
4.20024e-05
3.81298e-05
3.45707e-05
3.13043e-05
2.83107e-05
2.55709e-05
2.30669e-05
2.07814e-05
1.86983e-05
1.68023e-05
1.50787e-05
1.35142e-05
1.20958e-05
1.08116e-05
9.65054e-06
8.60202e-06
7.65637e-06
6.80453e-06
6.03808e-06
5.34923e-06
4.73073e-06
4.1759e-06
3.67854e-06
3.23293e-06
2.83379e-06
2.47622e-06
2.15571e-06
1.8681e-06
1.60952e-06
1.37637e-06
1.16534e-06
9.73295e-07
7.97327e-07
6.34681e-07
4.82745e-07
3.39023e-07
2.01106e-07
6.66498e-08
8.08712e-08
2.44002e-07
4.11308e-07
5.85626e-07
7.69868e-07
9.67055e-07
1.18035e-06
1.41307e-06
1.66874e-06
1.95114e-06
2.26428e-06
2.6125e-06
3.00045e-06
3.43317e-06
3.91609e-06
4.4551e-06
5.05657e-06
5.72739e-06
6.47501e-06
7.30747e-06
8.23348e-06
9.26241e-06
1.04044e-05
1.16702e-05
1.30717e-05
1.46212e-05
1.63323e-05
1.82193e-05
2.02974e-05
2.25829e-05
2.50932e-05
2.78466e-05
3.08626e-05
3.41616e-05
3.77652e-05
4.16961e-05
4.5978e-05
5.06357e-05
5.56951e-05
6.11828e-05
6.71267e-05
7.35553e-05
8.04978e-05
8.79841e-05
9.60447e-05
0.00010471
0.000114012
0.00012398
0.000134645
0.000146038
0.000158187
0.000171121
0.000184866
0.000199448
0.000214887
0.000231206
0.000248419
0.000266542
0.000285582
0.000305546
0.000326433
0.000348239
0.000370951
0.000394552
0.00041902
0.000444322
0.00047042
0.00049727
0.000524817
0.000553
0.00058175
0.000610991
0.000640639
0.000670602
0.000700783
0.000731077
0.000761374
0.000791562
0.000821521
0.000851132
0.000880271
0.000908814
0.000936641
0.000963628
0.000989658
0.00101462
0.00103839
0.00106088
0.00108198
0.00110161
0.00111968
0.00113611
0.00115085
0.00116382
0.00117498
0.00118429
0.00119171
0.00119721
0.00120078
0.00120241
0.00120208
0.00119981
0.00119559
0.00118946
0.00118142
0.00117152
0.00115979
0.00114627
0.00113102
0.0011141
0.00109559
0.00107555
0.00105407
0.00103125
0.00100719
0.000981978
0.000955739
0.000928582
0.000900626
0.00087199
0.000842796
0.000813166
0.000783221
0.000753079
0.000722856
0.000692664
0.00066261
0.000632797
0.000603319
0.000574266
0.000545718
0.000517752
0.000490433
0.00046382
0.000437966
0.000412913
0.000388698
0.000365351
0.000342894
0.000321343
0.000300707
0.000280992
0.000262195
0.000244312
0.000227331
0.000211239
0.000196018
0.000181649
0.000168108
0.000155369
0.000143407
0.000132194
0.000121698
0.000111892
0.000102744
9.42241e-05
8.63006e-05
7.89434e-05
7.21223e-05
6.58077e-05
5.99704e-05
5.45823e-05
4.9616e-05
4.50448e-05
4.08434e-05
3.69872e-05
3.34528e-05
3.02177e-05
2.72608e-05
2.45618e-05
2.21015e-05
1.98619e-05
1.7826e-05
1.59776e-05
1.43019e-05
1.27845e-05
1.14124e-05
1.01732e-05
9.05555e-06
8.04863e-06
7.14257e-06
6.32817e-06
5.59687e-06
4.94079e-06
4.35262e-06
3.8256e-06
3.35349e-06
2.93051e-06
2.55135e-06
2.21107e-06
1.90511e-06
1.62922e-06
1.37947e-06
1.15219e-06
9.43907e-07
7.51382e-07
5.71524e-07
4.01379e-07
2.38099e-07
7.89103e-08
9.35118e-08
2.82138e-07
4.75585e-07
6.77134e-07
8.90146e-07
1.11811e-06
1.36467e-06
1.63367e-06
1.92918e-06
2.25554e-06
2.6174e-06
3.01974e-06
3.46795e-06
3.96784e-06
4.52566e-06
5.14821e-06
5.84284e-06
6.61746e-06
7.48068e-06
8.44178e-06
9.51076e-06
1.06984e-05
1.20164e-05
1.34773e-05
1.50944e-05
1.68823e-05
1.88564e-05
2.10331e-05
2.34301e-05
2.60661e-05
2.8961e-05
3.2136e-05
3.56134e-05
3.94168e-05
4.35711e-05
4.81022e-05
5.30375e-05
5.84056e-05
6.42361e-05
7.05598e-05
7.74087e-05
8.48155e-05
9.2814e-05
0.000101439
0.000110724
0.000120706
0.00013142
0.000142902
0.000155186
0.000168308
0.0001823
0.000197196
0.000213026
0.000229818
0.000247599
0.000266392
0.000286216
0.000307086
0.000329014
0.000352004
0.000376058
0.000401169
0.000427325
0.000454504
0.00048268
0.000511817
0.000541871
0.000572788
0.000604508
0.000636958
0.000670059
0.000703723
0.000737852
0.00077234
0.000807073
0.000841932
0.00087679
0.000911514
0.000945967
0.000980011
0.0010135
0.0010463
0.00107826
0.00110925
0.00113913
0.00116776
0.00119503
0.00122081
0.00124498
0.00126746
0.00128814
0.00130694
0.00132379
0.00133862
0.00135137
0.00136199
0.00137046
0.00137674
0.00138081
0.00138266
0.00138228
0.00137967
0.00137486
0.00136784
0.00135866
0.00134733
0.00133392
0.00131845
0.00130101
0.00128164
0.00126044
0.00123749
0.00121288
0.00118672
0.00115911
0.00113019
0.00110007
0.00106889
0.00103677
0.00100387
0.000970315
0.000936251
0.000901815
0.000867146
0.000832377
0.000797638
0.000763054
0.000728741
0.000694811
0.000661367
0.000628503
0.000596305
0.000564851
0.00053421
0.000504441
0.000475594
0.000447711
0.000420828
0.000394969
0.000370153
0.000346392
0.00032369
0.000302046
0.000281453
0.000261899
0.000243369
0.000225843
0.000209296
0.000193702
0.000179034
0.000165258
0.000152344
0.000140257
0.000128964
0.000118427
0.000108614
9.94872e-05
9.10123e-05
8.31546e-05
7.58798e-05
6.91545e-05
6.29463e-05
5.72236e-05
5.19559e-05
4.71138e-05
4.26693e-05
3.85952e-05
3.48659e-05
3.14569e-05
2.8345e-05
2.5508e-05
2.29253e-05
2.05772e-05
1.84452e-05
1.65121e-05
1.47615e-05
1.31784e-05
1.17485e-05
1.04586e-05
9.29647e-06
8.25062e-06
7.31046e-06
6.46616e-06
5.70862e-06
5.02942e-06
4.42077e-06
3.87547e-06
3.38689e-06
2.94887e-06
2.55572e-06
2.20219e-06
1.88338e-06
1.59475e-06
1.33205e-06
1.0913e-06
8.6874e-07
6.60808e-07
4.64092e-07
2.75305e-07
9.12419e-08
1.0624e-07
3.20536e-07
5.40304e-07
7.69264e-07
1.01123e-06
1.27016e-06
1.5502e-06
1.85568e-06
2.19124e-06
2.56179e-06
2.97261e-06
3.42933e-06
3.93807e-06
4.5054e-06
5.13841e-06
5.8448e-06
6.63287e-06
7.51161e-06
8.49075e-06
9.58077e-06
1.0793e-05
1.21397e-05
1.3634e-05
1.52901e-05
1.71232e-05
1.91496e-05
2.13867e-05
2.38532e-05
2.6569e-05
2.95554e-05
3.28347e-05
3.64309e-05
4.03692e-05
4.46763e-05
4.93802e-05
5.45104e-05
6.00977e-05
6.61744e-05
7.27741e-05
7.99315e-05
8.76826e-05
9.60646e-05
0.000105116
0.000114874
0.000125381
0.000136674
0.000148795
0.000161784
0.000175681
0.000190524
0.000206352
0.000223201
0.000241106
0.0002601
0.000280212
0.000301468
0.000323889
0.000347495
0.000372296
0.000398299
0.000425505
0.000453906
0.000483488
0.000514228
0.000546095
0.000579047
0.000613036
0.000647999
0.000683868
0.000720561
0.000757988
0.000796046
0.000834626
0.000873607
0.000912859
0.000952246
0.000991623
0.00103084
0.00106974
0.00110817
0.00114596
0.00118295
0.00121899
0.00125391
0.00128756
0.0013198
0.00135048
0.00137947
0.00140665
0.00143189
0.00145511
0.0014762
0.00149509
0.00151171
0.00152598
0.00153788
0.00154735
0.00155437
0.00155891
0.00156097
0.00156053
0.00155761
0.00155221
0.00154434
0.00153405
0.00152136
0.00150632
0.00148897
0.0014694
0.00144766
0.00142385
0.00139806
0.00137039
0.00134096
0.00130989
0.00127733
0.0012434
0.00120825
0.00117205
0.00113494
0.00109708
0.00105863
0.00101975
0.0009806
0.000941327
0.00090208
0.000863
0.000824221
0.00078587
0.000748064
0.00071091
0.000674506
0.000638942
0.000604295
0.000570632
0.000538011
0.00050648
0.000476079
0.000446836
0.000418772
0.0003919
0.000366226
0.000341749
0.00031846
0.000296347
0.000275391
0.000255569
0.000236856
0.00021922
0.000202629
0.000187049
0.000172442
0.000158771
0.000145996
0.000134078
0.000122976
0.000112651
0.000103063
9.41722e-05
8.59406e-05
7.83303e-05
7.13045e-05
6.48277e-05
5.88653e-05
5.33842e-05
4.83526e-05
4.37401e-05
3.95174e-05
3.56571e-05
3.21327e-05
2.89195e-05
2.59939e-05
2.33337e-05
2.09182e-05
1.87277e-05
1.67438e-05
1.49495e-05
1.33287e-05
1.18665e-05
1.05488e-05
9.36294e-06
8.29677e-06
7.3392e-06
6.47993e-06
5.70943e-06
5.01889e-06
4.40015e-06
3.84571e-06
3.34858e-06
2.90234e-06
2.50102e-06
2.13907e-06
1.81135e-06
1.51305e-06
1.23963e-06
9.8686e-07
7.50679e-07
5.27222e-07
3.12759e-07
1.03656e-07
1.19068e-07
3.59236e-07
6.05527e-07
8.62105e-07
1.13324e-06
1.42336e-06
1.7371e-06
2.07931e-06
2.45517e-06
2.87019e-06
3.33023e-06
3.84164e-06
4.41121e-06
5.0463e-06
5.75484e-06
6.54542e-06
7.42731e-06
8.41055e-06
9.50598e-06
1.07253e-05
1.20812e-05
1.35873e-05
1.52583e-05
1.711e-05
1.91593e-05
2.14245e-05
2.39249e-05
2.66814e-05
2.97162e-05
3.30528e-05
3.67165e-05
4.07336e-05
4.51325e-05
4.99427e-05
5.51956e-05
6.0924e-05
6.71622e-05
7.39461e-05
8.13132e-05
8.93022e-05
9.79533e-05
0.000107308
0.000117408
0.000128297
0.00014002
0.000152621
0.000166144
0.000180634
0.000196137
0.000212695
0.00023035
0.000249145
0.000269117
0.000290303
0.000312735
0.000336443
0.000361452
0.00038778
0.000415441
0.000444444
0.000474787
0.000506463
0.000539455
0.000573739
0.000609278
0.000646027
0.00068393
0.000722918
0.000762913
0.000803824
0.000845549
0.000887973
0.000930973
0.000974412
0.00101815
0.00106202
0.00110587
0.00114953
0.00119283
0.00123558
0.00127761
0.00131873
0.00135877
0.00139755
0.0014349
0.00147066
0.00150466
0.00153677
0.00156686
0.00159478
0.00162044
0.00164374
0.00166458
0.00168291
0.00169864
0.00171174
0.00172216
0.00172988
0.00173487
0.00173712
0.00173663
0.00173339
0.00172743
0.00171876
0.0017074
0.0016934
0.0016768
0.00165766
0.00163604
0.00161201
0.00158568
0.00155714
0.0015265
0.0014939
0.00145946
0.00142333
0.00138567
0.00134664
0.00130642
0.00126516
0.00122306
0.00118029
0.00113702
0.00109344
0.0010497
0.00100599
0.000962453
0.000919244
0.000876504
0.000834366
0.00079295
0.000752368
0.000712717
0.000674086
0.000636551
0.000600177
0.000565018
0.000531116
0.000498506
0.00046721
0.000437244
0.000408613
0.000381316
0.000355344
0.000330684
0.000307313
0.000285207
0.000264337
0.000244668
0.000226164
0.000208787
0.000192495
0.000177246
0.000162996
0.000149701
0.000137317
0.000125797
0.0001151
0.00010518
9.59946e-05
8.75019e-05
7.96608e-05
7.24318e-05
6.57764e-05
5.96577e-05
5.40402e-05
4.889e-05
4.41747e-05
3.98635e-05
3.59271e-05
3.23377e-05
2.90694e-05
2.60972e-05
2.3398e-05
2.095e-05
1.87327e-05
1.6727e-05
1.49149e-05
1.328e-05
1.18066e-05
1.04803e-05
9.28781e-06
8.21664e-06
7.2553e-06
6.39318e-06
5.62043e-06
4.92795e-06
4.30734e-06
3.75083e-06
3.25122e-06
2.80185e-06
2.39652e-06
2.02948e-06
1.69534e-06
1.38905e-06
1.10585e-06
8.4122e-07
5.90827e-07
3.50497e-07
1.16165e-07
1.32008e-07
3.98274e-07
6.71317e-07
9.55747e-07
1.25629e-06
1.57786e-06
1.92555e-06
2.30477e-06
2.72123e-06
3.181e-06
3.6906e-06
4.25703e-06
4.8878e-06
5.59104e-06
6.37551e-06
7.25069e-06
8.22683e-06
9.31501e-06
1.05272e-05
1.18764e-05
1.33764e-05
1.50424e-05
1.68906e-05
1.89384e-05
2.12044e-05
2.37087e-05
2.64729e-05
2.95197e-05
3.28738e-05
3.6561e-05
4.06091e-05
4.50472e-05
4.99066e-05
5.52198e-05
6.10213e-05
6.73472e-05
7.42355e-05
8.17256e-05
8.98588e-05
9.86779e-05
0.000108227
0.000118552
0.000129698
0.000141715
0.000154651
0.000168555
0.000183475
0.000199463
0.000216566
0.000234832
0.000254309
0.000275042
0.000297073
0.000320442
0.000345186
0.000371337
0.000398921
0.000427961
0.000458471
0.000490459
0.000523926
0.000558863
0.00059525
0.000633061
0.000672256
0.000712783
0.00075458
0.000797572
0.00084167
0.000886774
0.00093277
0.000979531
0.00102692
0.00107478
0.00112296
0.00117128
0.00121956
0.00126761
0.00131524
0.00136226
0.00140845
0.00145363
0.00149759
0.00154015
0.0015811
0.00162028
0.00165751
0.00169264
0.00172552
0.00175602
0.00178401
0.00180941
0.00183211
0.00185205
0.00186915
0.00188338
0.00189469
0.00190306
0.00190846
0.00191089
0.00191033
0.0019068
0.00190031
0.00189087
0.00187852
0.00186328
0.00184521
0.00182435
0.00180078
0.00177457
0.00174582
0.00171464
0.00168114
0.00164546
0.00160775
0.00156816
0.00152686
0.00148403
0.00143986
0.00139454
0.00134827
0.00130123
0.00125364
0.00120567
0.00115753
0.00110939
0.00106144
0.00101383
0.000966738
0.000920298
0.000874649
0.000829913
0.000786201
0.000743609
0.000702224
0.000662116
0.000623346
0.000585961
0.00055
0.000515488
0.000482442
0.000450867
0.000420764
0.000392122
0.000364925
0.00033915
0.00031477
0.000291752
0.000270059
0.000249651
0.000230484
0.000212513
0.000195692
0.000179973
0.000165306
0.000151643
0.000138934
0.00012713
0.000116184
0.000106047
9.66744e-05
8.802e-05
8.00404e-05
7.26933e-05
6.5938e-05
5.97354e-05
5.40482e-05
4.88406e-05
4.40788e-05
3.97305e-05
3.57651e-05
3.21539e-05
2.88695e-05
2.58864e-05
2.31806e-05
2.07295e-05
1.8512e-05
1.65084e-05
1.47003e-05
1.30707e-05
1.16037e-05
1.02844e-05
9.09917e-06
8.03537e-06
7.08123e-06
6.22589e-06
5.45931e-06
4.7722e-06
4.15597e-06
3.60268e-06
3.10495e-06
2.65596e-06
2.24932e-06
1.87909e-06
1.53968e-06
1.22582e-06
9.32516e-07
6.54966e-07
3.88554e-07
1.28779e-07
1.45074e-07
4.37688e-07
7.37738e-07
1.05028e-06
1.38051e-06
1.73379e-06
2.11574e-06
2.53228e-06
2.98965e-06
3.49453e-06
4.05406e-06
4.6759e-06
5.36828e-06
6.1401e-06
7.00096e-06
7.96124e-06
9.03215e-06
1.02258e-05
1.15554e-05
1.30349e-05
1.46797e-05
1.65062e-05
1.85322e-05
2.07767e-05
2.326e-05
2.60042e-05
2.90327e-05
3.23705e-05
3.60444e-05
4.00826e-05
4.45156e-05
4.93751e-05
5.46952e-05
6.05115e-05
6.68616e-05
7.37849e-05
8.13229e-05
8.95187e-05
9.84173e-05
0.000108065
0.000118511
0.000129804
0.000141996
0.000155138
0.000169284
0.000184488
0.000200802
0.000218282
0.000236981
0.000256951
0.000278244
0.000300909
0.000324992
0.000350538
0.000377585
0.00040617
0.000436321
0.000468062
0.00050141
0.000536374
0.000572953
0.000611137
0.000650906
0.00069223
0.000735064
0.000779352
0.000825025
0.000872
0.00092018
0.000969453
0.00101969
0.00107076
0.0011225
0.00117475
0.00122733
0.00128005
0.00133271
0.0013851
0.00143701
0.00148822
0.00153851
0.00158766
0.00163546
0.00168169
0.00172615
0.00176864
0.00180898
0.00184701
0.00188256
0.0019155
0.00194571
0.00197308
0.00199753
0.00201897
0.00203734
0.00205261
0.00206474
0.00207369
0.00207947
0.00208205
0.00208143
0.00207762
0.00207064
0.00206049
0.0020472
0.00203081
0.00201136
0.00198889
0.00196349
0.00193521
0.00190417
0.00187047
0.00183423
0.0017956
0.00175472
0.00171178
0.00166695
0.00162042
0.0015724
0.00152309
0.00147272
0.00142149
0.00136962
0.00131733
0.00126483
0.00121231
0.00115998
0.00110803
0.00105661
0.0010059
0.000956045
0.000907181
0.00085943
0.0008129
0.000767683
0.00072386
0.000681496
0.000640646
0.000601349
0.000563634
0.000527521
0.000493015
0.000460117
0.000428815
0.000399092
0.000370923
0.000344277
0.00031912
0.000295409
0.000273103
0.000252152
0.000232509
0.000214122
0.000196937
0.000180903
0.000165964
0.000152068
0.000139162
0.000127191
0.000116106
0.000105854
9.63881e-05
8.7659e-05
7.9621e-05
7.22297e-05
6.54424e-05
5.92184e-05
5.35187e-05
4.83063e-05
4.35459e-05
3.92042e-05
3.52497e-05
3.16528e-05
2.83854e-05
2.54213e-05
2.27358e-05
2.0306e-05
1.81103e-05
1.61286e-05
1.43422e-05
1.27339e-05
1.12873e-05
9.98756e-06
8.82081e-06
7.77419e-06
6.83581e-06
5.9947e-06
5.24068e-06
4.56435e-06
3.95702e-06
3.4106e-06
2.91762e-06
2.47108e-06
2.06447e-06
1.69167e-06
1.34689e-06
1.02465e-06
7.197e-07
4.26965e-07
1.41511e-07
1.58277e-07
4.77518e-07
8.04857e-07
1.1458e-06
1.50601e-06
1.89132e-06
2.30786e-06
2.76205e-06
3.26071e-06
3.81109e-06
4.42096e-06
5.09865e-06
5.85311e-06
6.69402e-06
7.63181e-06
8.67775e-06
9.84403e-06
1.11438e-05
1.25914e-05
1.4202e-05
1.59923e-05
1.79801e-05
2.01847e-05
2.26266e-05
2.53282e-05
2.83131e-05
3.16067e-05
3.52363e-05
3.92308e-05
4.36209e-05
4.84395e-05
5.37212e-05
5.95026e-05
6.58225e-05
7.27217e-05
8.02428e-05
8.84308e-05
9.73323e-05
0.000106996
0.000117473
0.000128815
0.000141076
0.000154311
0.000168577
0.000183932
0.000200433
0.000218139
0.000237109
0.000257401
0.000279071
0.000302175
0.000326767
0.000352898
0.000380614
0.000409958
0.00044097
0.000473681
0.000508116
0.000544294
0.000582223
0.000621904
0.000663325
0.000706464
0.000751288
0.000797747
0.000845782
0.000895314
0.000946255
0.000998496
0.00105192
0.00110638
0.00116172
0.00121779
0.00127439
0.00133133
0.00138841
0.00144539