/*--------------------------------*- C++ -*----------------------------------*\
| =========                 |                                                 |
| \\      /  F ield         | OpenFOAM: The Open Source CFD Toolbox           |
|  \\    /   O peration     | Version:  3.0.1                                 |
|   \\  /    A nd           | Web:      www.OpenFOAM.org                      |
|    \\/     M anipulation  |                                                 |
\*---------------------------------------------------------------------------*/
FoamFile
{
    version     2.0;
    format      ascii;
    class       volScalarField;
    location    "1";
    object      C_0;
}
// * * * * * * * * * * * * * * * * * * * * * * * * * * * * * * * * * * * * * //

dimensions      [0 -3 0 0 1 0 0];

internalField   nonuniform List<scalar> 
80000
(
6.13682e-09
1.85168e-08
3.1212e-08
4.44407e-08
5.84266e-08
7.34009e-08
8.96056e-08
1.07295e-07
1.2674e-07
1.48227e-07
1.72066e-07
1.98588e-07
2.28152e-07
2.61144e-07
2.97982e-07
3.39119e-07
3.85046e-07
4.36295e-07
4.93439e-07
5.571e-07
6.2795e-07
7.06715e-07
7.94176e-07
8.91175e-07
9.98617e-07
1.11747e-06
1.24878e-06
1.39366e-06
1.55329e-06
1.72894e-06
1.92195e-06
2.13376e-06
2.36587e-06
2.61988e-06
2.89746e-06
3.20038e-06
3.5305e-06
3.88973e-06
4.2801e-06
4.70368e-06
5.16263e-06
5.65918e-06
6.19562e-06
6.77425e-06
7.39747e-06
8.06764e-06
8.78719e-06
9.55851e-06
1.0384e-05
1.12659e-05
1.22066e-05
1.32083e-05
1.42729e-05
1.54025e-05
1.65987e-05
1.78632e-05
1.91972e-05
2.06017e-05
2.20776e-05
2.36251e-05
2.52444e-05
2.69349e-05
2.86959e-05
3.0526e-05
3.24234e-05
3.43857e-05
3.64101e-05
3.84929e-05
4.06302e-05
4.28173e-05
4.50489e-05
4.73191e-05
4.96216e-05
5.19493e-05
5.42949e-05
5.66504e-05
5.90074e-05
6.13571e-05
6.36907e-05
6.59987e-05
6.82717e-05
7.05003e-05
7.2675e-05
7.47862e-05
7.68247e-05
7.87814e-05
8.06478e-05
8.24153e-05
8.40761e-05
8.56229e-05
8.70486e-05
8.83471e-05
8.95127e-05
9.05403e-05
9.14256e-05
9.21648e-05
9.27549e-05
9.31934e-05
9.34786e-05
9.36093e-05
9.3585e-05
9.34061e-05
9.30731e-05
9.25876e-05
9.19516e-05
9.1168e-05
9.02399e-05
8.91715e-05
8.79673e-05
8.66327e-05
8.51734e-05
8.35958e-05
8.1907e-05
8.01144e-05
7.8226e-05
7.62502e-05
7.41957e-05
7.20715e-05
6.98867e-05
6.76509e-05
6.53734e-05
6.30635e-05
6.07307e-05
5.8384e-05
5.60323e-05
5.36842e-05
5.13479e-05
4.90311e-05
4.67411e-05
4.44847e-05
4.22682e-05
4.00973e-05
3.7977e-05
3.59118e-05
3.39057e-05
3.1962e-05
3.00836e-05
2.82726e-05
2.65307e-05
2.48593e-05
2.3259e-05
2.17302e-05
2.02728e-05
1.88862e-05
1.75698e-05
1.63225e-05
1.51428e-05
1.40292e-05
1.298e-05
1.19932e-05
1.10667e-05
1.01983e-05
9.38571e-06
8.62666e-06
7.91874e-06
7.25957e-06
6.64675e-06
6.0779e-06
5.55067e-06
5.06275e-06
4.61188e-06
4.19585e-06
3.81254e-06
3.45986e-06
3.13585e-06
2.83858e-06
2.56624e-06
2.31708e-06
2.08944e-06
1.88176e-06
1.69253e-06
1.52036e-06
1.36392e-06
1.22197e-06
1.09333e-06
9.7691e-07
8.71688e-07
7.76709e-07
6.91083e-07
6.13983e-07
5.44641e-07
4.82345e-07
4.26435e-07
3.763e-07
3.31378e-07
2.91146e-07
2.55125e-07
2.22869e-07
1.93969e-07
1.68046e-07
1.44749e-07
1.23752e-07
1.04755e-07
8.74747e-08
7.16469e-08
5.70229e-08
4.33664e-08
3.0452e-08
1.80622e-08
5.9855e-09
1.84165e-08
5.55639e-08
9.36609e-08
1.33359e-07
1.75329e-07
2.20264e-07
2.68891e-07
3.21972e-07
3.80319e-07
4.44795e-07
5.16326e-07
5.95907e-07
6.84612e-07
7.83602e-07
8.94131e-07
1.01756e-06
1.15535e-06
1.30911e-06
1.48055e-06
1.67155e-06
1.8841e-06
2.1204e-06
2.38278e-06
2.67377e-06
2.99608e-06
3.35262e-06
3.74651e-06
4.18109e-06
4.65992e-06
5.1868e-06
5.76575e-06
6.40105e-06
7.09724e-06
7.85908e-06
8.69163e-06
9.60017e-06
1.05902e-05
1.16676e-05
1.28384e-05
1.41087e-05
1.54851e-05
1.69742e-05
1.85829e-05
2.03182e-05
2.21871e-05
2.41969e-05
2.63547e-05
2.86677e-05
3.1143e-05
3.37878e-05
3.66087e-05
3.96123e-05
4.28048e-05
4.61921e-05
4.97792e-05
5.3571e-05
5.75712e-05
6.1783e-05
6.62087e-05
7.08494e-05
7.57051e-05
8.07746e-05
8.60553e-05
9.15434e-05
9.72333e-05
0.000103118
0.000109189
0.000115435
0.000121844
0.000128403
0.000135095
0.000141903
0.000148807
0.000155788
0.000162821
0.000169885
0.000176953
0.000183999
0.000190996
0.000197916
0.000204732
0.000211414
0.000217933
0.000224263
0.000230375
0.000236241
0.000241835
0.000247133
0.000252112
0.000256747
0.000261021
0.000264912
0.000268405
0.000271484
0.000274137
0.000276352
0.00027812
0.000279434
0.000280288
0.000280679
0.000280606
0.00028007
0.000279072
0.000277617
0.000275711
0.000273363
0.000270581
0.00026738
0.000263771
0.000259771
0.000255397
0.000250668
0.000245606
0.000240232
0.000234572
0.000228648
0.000222489
0.00021612
0.00020957
0.000202867
0.000196038
0.000189112
0.000182117
0.00017508
0.000168028
0.000160987
0.000153981
0.000147034
0.000140167
0.0001334
0.000126754
0.000120244
0.000113885
0.000107692
0.000101676
9.58479e-05
9.02149e-05
8.47843e-05
7.95611e-05
7.4549e-05
6.97503e-05
6.51658e-05
6.07955e-05
5.66377e-05
5.26903e-05
4.89499e-05
4.54125e-05
4.20734e-05
3.89272e-05
3.5968e-05
3.31897e-05
3.05856e-05
2.8149e-05
2.58728e-05
2.37499e-05
2.17732e-05
1.99355e-05
1.82296e-05
1.66485e-05
1.51853e-05
1.38332e-05
1.25855e-05
1.14359e-05
1.03782e-05
9.40649e-06
8.51493e-06
7.69812e-06
6.95081e-06
6.26805e-06
5.64511e-06
5.07754e-06
4.56111e-06
4.09186e-06
3.66604e-06
3.28016e-06
2.93094e-06
2.61529e-06
2.33036e-06
2.07349e-06
1.84219e-06
1.63416e-06
1.44726e-06
1.27952e-06
1.12911e-06
9.94329e-07
8.7362e-07
7.65541e-07
6.6876e-07
5.82045e-07
5.04262e-07
4.34357e-07
3.71356e-07
3.14351e-07
2.62498e-07
2.15003e-07
1.71119e-07
1.30139e-07
9.13844e-08
5.42041e-08
1.79629e-08
3.07091e-08
9.26538e-08
1.56186e-07
2.2239e-07
2.92381e-07
3.67315e-07
4.48402e-07
5.36915e-07
6.34204e-07
7.4171e-07
8.60976e-07
9.9366e-07
1.14155e-06
1.30659e-06
1.49085e-06
1.69662e-06
1.92633e-06
2.18263e-06
2.46841e-06
2.78677e-06
3.14106e-06
3.5349e-06
3.9722e-06
4.45716e-06
4.99431e-06
5.58847e-06
6.24487e-06
6.96904e-06
7.76691e-06
8.6448e-06
9.60943e-06
1.06679e-05
1.18278e-05
1.3097e-05
1.4484e-05
1.59975e-05
1.76468e-05
1.94415e-05
2.13916e-05
2.35076e-05
2.58002e-05
2.82805e-05
3.09599e-05
3.385e-05
3.69627e-05
4.03099e-05
4.39035e-05
4.77556e-05
5.18781e-05
5.62825e-05
6.09803e-05
6.59824e-05
7.12991e-05
7.69399e-05
8.29137e-05
8.92282e-05
9.58899e-05
0.000102904
0.000110274
0.000118003
0.000126089
0.000134531
0.000143326
0.000152466
0.000161941
0.000171742
0.000181852
0.000192254
0.000202928
0.000213851
0.000224995
0.000236333
0.000247832
0.000259456
0.00027117
0.000282932
0.000294701
0.000306433
0.000318083
0.000329606
0.000340952
0.000352076
0.000362929
0.000373464
0.000383636
0.000393398
0.000402708
0.000411523
0.000419805
0.000427517
0.000434624
0.000441096
0.000446905
0.000452025
0.000456436
0.000460118
0.000463056
0.00046524
0.000466659
0.000467309
0.000467187
0.000466295
0.000464635
0.000462215
0.000459046
0.000455141
0.000450515
0.00044519
0.000439188
0.000432534
0.000425258
0.000417392
0.000408969
0.000400028
0.000390608
0.00038075
0.000370499
0.000359899
0.000348995
0.000337835
0.000326467
0.000314936
0.000303289
0.000291572
0.00027983
0.000268105
0.000256439
0.000244869
0.000233434
0.000222166
0.000211097
0.000200255
0.000189667
0.000179353
0.000169335
0.000159629
0.000150248
0.000141204
0.000132506
0.000124159
0.000116168
0.000108534
0.000101256
9.4332e-05
8.77585e-05
8.15298e-05
7.5639e-05
7.00785e-05
6.48391e-05
5.99112e-05
5.52845e-05
5.09479e-05
4.68901e-05
4.30995e-05
3.95641e-05
3.62721e-05
3.32115e-05
3.03704e-05
2.77371e-05
2.53e-05
2.30479e-05
2.09698e-05
1.9055e-05
1.72931e-05
1.56744e-05
1.41892e-05
1.28285e-05
1.15835e-05
1.0446e-05
9.40816e-06
8.46252e-06
7.60205e-06
6.82016e-06
6.11062e-06
5.4676e-06
4.88563e-06
4.35961e-06
3.88476e-06
3.45665e-06
3.07114e-06
2.7244e-06
2.41288e-06
2.13328e-06
1.88255e-06
1.65787e-06
1.45664e-06
1.27646e-06
1.11511e-06
9.70542e-07
8.40856e-07
7.24302e-07
6.19256e-07
5.24205e-07
4.37742e-07
3.58543e-07
2.85365e-07
2.17027e-07
1.524e-07
9.03965e-08
2.99574e-08
4.30278e-08
1.29823e-07
2.18846e-07
3.11614e-07
4.09688e-07
5.14684e-07
6.28296e-07
7.52307e-07
8.88608e-07
1.03922e-06
1.20629e-06
1.39215e-06
1.59931e-06
1.83047e-06
2.08856e-06
2.37673e-06
2.69843e-06
3.05737e-06
3.45755e-06
3.90333e-06
4.3994e-06
4.95082e-06
5.56306e-06
6.24198e-06
6.99392e-06
7.82564e-06
8.74441e-06
9.758e-06
1.08747e-05
1.21033e-05
1.34532e-05
1.49345e-05
1.65575e-05
1.83334e-05
2.0274e-05
2.23916e-05
2.4699e-05
2.72097e-05
2.99378e-05
3.28977e-05
3.61046e-05
3.9574e-05
4.33217e-05
4.7364e-05
5.17174e-05
5.63987e-05
6.14246e-05
6.68119e-05
7.25772e-05
7.87367e-05
8.53064e-05
9.23016e-05
9.97366e-05
0.000107625
0.000115979
0.000124809
0.000134125
0.000143934
0.000154241
0.000165048
0.000176356
0.000188163
0.000200461
0.000213243
0.000226495
0.0002402
0.000254339
0.000268886
0.000283813
0.000299088
0.000314674
0.000330528
0.000346608
0.000362863
0.000379241
0.000395687
0.000412142
0.000428544
0.00044483
0.000460936
0.000476796
0.000492341
0.000507507
0.000522227
0.000536437
0.000550073
0.000563075
0.000575384
0.000586947
0.000597712
0.000607632
0.000616663
0.000624768
0.000631911
0.000638062
0.000643197
0.000647294
0.000650338
0.000652316
0.00065322
0.000653049
0.000651803
0.000649487
0.000646111
0.000641689
0.00063624
0.000629787
0.000622356
0.000613979
0.000604692
0.000594536
0.000583553
0.000571793
0.000559307
0.00054615
0.000532381
0.000518059
0.000503247
0.000488011
0.000472415
0.000456525
0.000440407
0.000424126
0.000407747
0.00039133
0.000374937
0.000358625
0.000342448
0.000326457
0.000310701
0.000295222
0.000280062
0.000265254
0.000250832
0.000236822
0.000223249
0.000210131
0.000197484
0.00018532
0.000173649
0.000162474
0.000151798
0.000141621
0.000131939
0.000122747
0.000114037
0.0001058
9.80244e-05
9.06979e-05
8.38069e-05
7.73369e-05
7.12726e-05
6.5598e-05
6.0297e-05
5.53528e-05
5.07489e-05
4.64684e-05
4.24949e-05
3.88118e-05
3.54031e-05
3.2253e-05
2.93461e-05
2.66676e-05
2.4203e-05
2.19384e-05
1.98606e-05
1.79568e-05
1.62149e-05
1.46233e-05
1.3171e-05
1.18477e-05
1.06435e-05
9.54922e-06
8.55615e-06
7.65613e-06
6.84152e-06
6.10518e-06
5.44043e-06
4.84108e-06
4.30135e-06
3.81588e-06
3.37968e-06
2.98816e-06
2.63705e-06
2.32241e-06
2.04059e-06
1.78824e-06
1.56224e-06
1.35974e-06
1.17808e-06
1.01481e-06
8.67652e-07
7.34492e-07
6.13355e-07
5.02393e-07
3.99862e-07
3.04109e-07
2.13554e-07
1.26671e-07
4.19794e-08
5.53851e-08
1.67107e-07
2.81699e-07
4.01113e-07
5.27352e-07
6.62498e-07
8.08725e-07
9.68329e-07
1.14374e-06
1.33755e-06
1.55254e-06
1.79169e-06
2.05823e-06
2.35562e-06
2.68764e-06
3.05835e-06
3.47215e-06
3.93382e-06
4.4485e-06
5.0218e-06
5.65972e-06
6.36878e-06
7.15599e-06
8.02889e-06
8.99559e-06
1.00648e-05
1.12458e-05
1.25486e-05
1.39839e-05
1.55629e-05
1.72977e-05
1.9201e-05
2.12865e-05
2.35683e-05
2.60616e-05
2.8782e-05
3.17461e-05
3.49713e-05
3.84755e-05
4.22773e-05
4.63961e-05
5.08518e-05
5.56648e-05
6.0856e-05
6.64465e-05
7.24578e-05
7.89115e-05
8.5829e-05
9.32316e-05
0.00010114
0.000109576
0.000118557
0.000128103
0.000138231
0.000148957
0.000160294
0.000172255
0.000184849
0.000198082
0.000211958
0.000226477
0.000241636
0.000257426
0.000273837
0.000290852
0.000308449
0.000326602
0.00034528
0.000364446
0.000384057
0.000404067
0.000424422
0.000445064
0.000465931
0.000486955
0.000508064
0.000529183
0.000550233
0.000571132
0.000591797
0.000612142
0.000632083
0.000651533
0.000670408
0.000688625
0.000706103
0.000722764
0.000738536
0.000753347
0.000767133
0.000779833
0.000791393
0.000801764
0.000810903
0.000818771
0.000825338
0.000830576
0.000834467
0.000836994
0.000838148
0.000837926
0.00083633
0.000833365
0.000829045
0.000823387
0.000816414
0.000808155
0.000798644
0.000787921
0.000776031
0.000763024
0.000748958
0.000733892
0.000717893
0.000701032
0.000683381
0.00066502
0.000646028
0.000626487
0.000606483
0.000586098
0.000565419
0.000544528
0.000523508
0.000502438
0.000481398
0.000460459
0.000439694
0.000419167
0.000398939
0.000379068
0.000359604
0.000340594
0.000322078
0.000304091
0.000286665
0.000269823
0.000253586
0.00023797
0.000222985
0.000208639
0.000194933
0.000181867
0.000169437
0.000157636
0.000146454
0.000135879
0.000125896
0.00011649
0.000107643
9.9336e-05
9.155e-05
8.42643e-05
7.7458e-05
7.11097e-05
6.51981e-05
5.97017e-05
5.45992e-05
4.98695e-05
4.5492e-05
4.14464e-05
3.7713e-05
3.42726e-05
3.11069e-05
2.81979e-05
2.55287e-05
2.30829e-05
2.0845e-05
1.88e-05
1.69339e-05
1.52334e-05
1.36859e-05
1.22796e-05
1.10032e-05
9.84632e-06
8.79917e-06
7.85257e-06
6.99795e-06
6.22736e-06
5.53337e-06
4.9091e-06
4.34815e-06
3.84463e-06
3.39304e-06
2.98833e-06
2.62582e-06
2.3012e-06
2.01046e-06
1.74993e-06
1.51619e-06
1.30611e-06
1.11674e-06
9.45381e-07
7.89485e-07
6.46674e-07
5.14709e-07
3.91461e-07
2.74899e-07
1.63061e-07
5.40395e-08
6.77932e-08
2.04544e-07
3.44807e-07
4.9097e-07
6.45483e-07
8.1089e-07
9.89849e-07
1.18517e-06
1.39981e-06
1.63696e-06
1.89999e-06
2.19257e-06
2.51863e-06
2.88242e-06
3.28852e-06
3.7419e-06
4.24796e-06
4.81251e-06
5.44184e-06
6.14278e-06
6.92268e-06
7.78947e-06
8.75172e-06
9.81862e-06
1.10001e-05
1.23067e-05
1.37499e-05
1.53417e-05
1.70953e-05
1.90243e-05
2.11435e-05
2.34684e-05
2.60155e-05
2.88023e-05
3.18471e-05
3.51691e-05
3.87884e-05
4.27262e-05
4.70044e-05
5.16458e-05
5.66738e-05
6.21128e-05
6.79877e-05
7.43239e-05
8.11472e-05
8.84838e-05
9.636e-05
0.000104802
0.000113836
0.000123487
0.000133781
0.000144741
0.000156389
0.000168748
0.000181836
0.00019567
0.000210265
0.000225633
0.00024178
0.000258712
0.000276429
0.000294927
0.000314195
0.000334221
0.000354983
0.000376456
0.000398607
0.000421398
0.000444784
0.000468714
0.000493128
0.000517962
0.000543146
0.000568603
0.000594249
0.000619996
0.000645753
0.000671422
0.000696903
0.000722095
0.000746893
0.000771193
0.00079489
0.000817881
0.000840065
0.000861344
0.000881623
0.000900813
0.000918829
0.000935592
0.000951032
0.00096508
0.00097768
0.000988779
0.000998333
0.0010063
0.00101266
0.00101738
0.00102044
0.00102184
0.00102157
0.00101962
0.00101602
0.00101077
0.0010039
0.000995429
0.000985395
0.000973838
0.000960805
0.00094635
0.000930535
0.000913426
0.000895097
0.000875628
0.000855104
0.000833614
0.000811253
0.000788118
0.000764311
0.000739933
0.000715088
0.000689879
0.000664409
0.000638777
0.000613083
0.000587421
0.000561881
0.00053655
0.000511508
0.000486831
0.000462588
0.00043884
0.000415646
0.000393054
0.000371108
0.000349844
0.000329295
0.000309483
0.000290429
0.000272146
0.00025464
0.000237917
0.000221975
0.000206809
0.00019241
0.000178767
0.000165863
0.000153683
0.000142206
0.000131411
0.000121275
0.000111774
0.000102884
9.45779e-05
8.6831e-05
7.96166e-05
7.29087e-05
6.66812e-05
6.09085e-05
5.55654e-05
5.06271e-05
4.60696e-05
4.18696e-05
3.80047e-05
3.4453e-05
3.11938e-05
2.82072e-05
2.54742e-05
2.29766e-05
2.06974e-05
1.86203e-05
1.67299e-05
1.50118e-05
1.34524e-05
1.20389e-05
1.07593e-05
9.60244e-06
8.55796e-06
7.61608e-06
6.76776e-06
6.0046e-06
5.31881e-06
4.70316e-06
4.15098e-06
3.65607e-06
3.21273e-06
2.81569e-06
2.46008e-06
2.14138e-06
1.85545e-06
1.59842e-06
1.36673e-06
1.15705e-06
9.66278e-07
7.9151e-07
6.30004e-07
4.79159e-07
3.36489e-07
1.99597e-07
6.61485e-08
8.02643e-08
2.42171e-07
4.08231e-07
5.81272e-07
7.64192e-07
9.59997e-07
1.17183e-06
1.40301e-06
1.65704e-06
1.93768e-06
2.24894e-06
2.59513e-06
2.98089e-06
3.41124e-06
3.89162e-06
4.42788e-06
5.02638e-06
5.694e-06
6.43818e-06
7.26694e-06
8.18897e-06
9.21364e-06
1.0351e-05
1.1612e-05
1.30083e-05
1.45523e-05
1.62576e-05
1.81383e-05
2.02099e-05
2.24886e-05
2.49917e-05
2.77376e-05
3.07457e-05
3.40365e-05
3.76317e-05
4.15538e-05
4.58268e-05
5.04754e-05
5.55254e-05
6.10038e-05
6.69382e-05
7.33573e-05
8.02904e-05
8.77674e-05
9.5819e-05
0.000104476
0.000113769
0.00012373
0.000134388
0.000145775
0.000157919
0.000170849
0.000184591
0.000199171
0.000214611
0.000230931
0.000248148
0.000266277
0.000285326
0.0003053
0.000326201
0.000348022
0.000370754
0.000394377
0.00041887
0.000444201
0.000470332
0.000497217
0.000524803
0.000553029
0.000581825
0.000611116
0.000640817
0.000670836
0.000701075
0.000731431
0.000761794
0.000792048
0.000822076
0.000851757
0.000880967
0.000909583
0.000937481
0.000964541
0.000990642
0.00101567
0.00103951
0.00106207
0.00108323
0.00110292
0.00112105
0.00113753
0.00115231
0.00116533
0.00117653
0.00118587
0.00119331
0.00119884
0.00120242
0.00120405
0.00120372
0.00120144
0.00119722
0.00119106
0.001183
0.00117306
0.00116129
0.00114773
0.00113244
0.00111547
0.00109689
0.0010768
0.00105526
0.00103237
0.00100824
0.000982958
0.000956647
0.000929418
0.00090139
0.000872682
0.000843418
0.000813718
0.000783704
0.000753496
0.000723209
0.000692956
0.000662844
0.000632975
0.000603445
0.000574342
0.000545749
0.000517741
0.000490383
0.000463735
0.000437848
0.000412767
0.000388527
0.000365158
0.000342683
0.000321115
0.000300467
0.000280741
0.000261936
0.000244046
0.000227062
0.000210968
0.000195747
0.000181379
0.000167841
0.000155106
0.00014315
0.000131942
0.000121454
0.000111655
0.000102515
9.40032e-05
8.60885e-05
7.87404e-05
7.19286e-05
6.56232e-05
5.97952e-05
5.44164e-05
4.94591e-05
4.4897e-05
4.07043e-05
3.68566e-05
3.33305e-05
3.01034e-05
2.71542e-05
2.44626e-05
2.20093e-05
1.97765e-05
1.77469e-05
1.59046e-05
1.42346e-05
1.27226e-05
1.13556e-05
1.01212e-05
9.00792e-06
8.00517e-06
7.103e-06
6.29221e-06
5.56428e-06
4.91133e-06
4.32605e-06
3.80172e-06
3.33209e-06
2.91143e-06
2.5344e-06
2.1961e-06
1.89198e-06
1.61781e-06
1.36967e-06
1.14389e-06
9.37027e-07
7.4585e-07
5.67282e-07
3.98381e-07
2.36313e-07
7.83172e-08
9.28105e-08
2.80023e-07
4.72033e-07
6.72107e-07
8.83591e-07
1.10996e-06
1.35484e-06
1.62205e-06
1.91567e-06
2.24e-06
2.59967e-06
2.99968e-06
3.44536e-06
3.94252e-06
4.4974e-06
5.11678e-06
5.80798e-06
6.57892e-06
7.43816e-06
8.39499e-06
9.45938e-06
1.06421e-05
1.19549e-05
1.34101e-05
1.50213e-05
1.68028e-05
1.87701e-05
2.09397e-05
2.33292e-05
2.59573e-05
2.88439e-05
3.20102e-05
3.54786e-05
3.92726e-05
4.3417e-05
4.79381e-05
5.28631e-05
5.82206e-05
6.40404e-05
7.03533e-05
7.71912e-05
8.45871e-05
9.25747e-05
0.000101189
0.000110464
0.000120436
0.00013114
0.000142613
0.000154889
0.000168004
0.00018199
0.000196881
0.000212708
0.000229499
0.00024728
0.000266075
0.000285903
0.00030678
0.000328717
0.00035172
0.000375789
0.000400918
0.000427096
0.000454301
0.000482506
0.000511676
0.000541767
0.000572725
0.000604489
0.000636989
0.000670143
0.000703864
0.000738053
0.000772606
0.000807407
0.000842338
0.000877269
0.00091207
0.000946603
0.000980727
0.0010143
0.00104718
0.00107923
0.0011103
0.00114026
0.00116897
0.00119632
0.00122217
0.00124642
0.00126897
0.00128972
0.00130858
0.00132548
0.00134035
0.00135315
0.00136381
0.00137231
0.00137861
0.00138269
0.00138455
0.00138417
0.00138155
0.00137672
0.00136968
0.00136047
0.00134911
0.00133565
0.00132014
0.00130264
0.00128321
0.00126194
0.00123892
0.00121424
0.001188
0.00116032
0.00113131
0.00110111
0.00106984
0.00103765
0.00100466
0.000971028
0.000936883
0.000902369
0.000867623
0.000832781
0.000797972
0.00076332
0.000728943
0.000694953
0.000661452
0.000628536
0.00059629
0.000564791
0.00053411
0.000504303
0.000475424
0.000447513
0.000420604
0.000394724
0.00036989
0.000346113
0.000323399
0.000301746
0.000281146
0.000261588
0.000243056
0.00022553
0.000208984
0.000193394
0.00017873
0.000164961
0.000152053
0.000139975
0.00012869
0.000118163
0.000108359
9.92425e-05
9.07782e-05
8.2931e-05
7.5667e-05
6.89524e-05
6.27549e-05
5.70427e-05
5.17853e-05
4.69534e-05
4.25187e-05
3.84542e-05
3.47341e-05
3.1334e-05
2.82305e-05
2.54017e-05
2.28267e-05
2.0486e-05
1.8361e-05
1.64344e-05
1.46901e-05
1.31128e-05
1.16884e-05
1.04037e-05
9.24631e-06
8.20494e-06
7.26895e-06
6.42854e-06
5.6746e-06
4.99874e-06
4.39319e-06
3.85077e-06
3.36485e-06
2.92929e-06
2.53844e-06
2.18703e-06
1.8702e-06
1.58343e-06
1.32246e-06
1.08335e-06
8.6235e-07
6.55908e-07
4.6063e-07
2.73242e-07
9.05569e-08
1.05444e-07
3.18137e-07
5.36274e-07
7.6356e-07
1.00379e-06
1.26091e-06
1.53904e-06
1.8425e-06
2.17591e-06
2.54416e-06
2.9525e-06
3.40657e-06
3.91244e-06
4.47668e-06
5.10636e-06
5.80914e-06
6.59334e-06
7.4679e-06
8.44253e-06
9.52772e-06
1.07348e-05
1.20759e-05
1.35643e-05
1.5214e-05
1.70403e-05
1.90595e-05
2.12889e-05
2.37474e-05
2.64547e-05
2.9432e-05
3.2702e-05
3.62883e-05
4.02164e-05
4.45128e-05
4.92057e-05
5.43245e-05
5.99001e-05
6.59649e-05
7.25523e-05
7.96974e-05
8.74362e-05
9.58058e-05
0.000104844
0.000114591
0.000125086
0.000136368
0.000148478
0.000161457
0.000175344
0.000190179
0.000206
0.000222844
0.000240746
0.000259737
0.000279849
0.000301107
0.000323534
0.000347147
0.000371958
0.000397975
0.000425198
0.00045362
0.000483227
0.000513996
0.000545895
0.000578885
0.000612915
0.000647925
0.000683844
0.000720593
0.000758079
0.000796202
0.000834851
0.000873904
0.000913233
0.0009527
0.000992161
0.00103146
0.00107045
0.00110897
0.00114685
0.00118394
0.00122007
0.00125509
0.00128884
0.00132116
0.00135193
0.00138101
0.00140827
0.00143359
0.00145688
0.00147805
0.001497
0.00151367
0.00152799
0.00153993
0.00154943
0.00155648
0.00156104
0.0015631
0.00156267
0.00155973
0.00155431
0.00154642
0.00153609
0.00152336
0.00150827
0.00149087
0.00147123
0.00144943
0.00142554
0.00139967
0.00137192
0.00134241
0.00131125
0.00127859
0.00124457
0.00120934
0.00117304
0.00113583
0.00109788
0.00105934
0.00102037
0.000981136
0.00094178
0.000902453
0.000863297
0.000824446
0.000786027
0.000748157
0.000710944
0.000674486
0.000638871
0.000604178
0.000570474
0.000537816
0.000506254
0.000475824
0.000446556
0.000418472
0.000391583
0.000365896
0.000341408
0.000318112
0.000295994
0.000275036
0.000255214
0.000236502
0.00021887
0.000202285
0.000186712
0.000172113
0.000158451
0.000145686
0.000133778
0.000122687
0.000112374
0.000102798
9.3919e-05
8.56995e-05
7.81014e-05
7.10877e-05
6.46228e-05
5.86721e-05
5.32025e-05
4.8182e-05
4.35803e-05
3.93681e-05
3.55177e-05
3.2003e-05
2.8799e-05
2.58822e-05
2.32303e-05
2.08227e-05
1.86396e-05
1.66629e-05
1.48752e-05
1.32606e-05
1.18041e-05
1.0492e-05
9.31115e-06
8.2497e-06
7.29653e-06
6.44135e-06
5.67464e-06
4.98761e-06
4.37214e-06
3.82071e-06
3.32638e-06
2.88273e-06
2.48382e-06
2.12412e-06
1.7985e-06
1.50217e-06
1.23062e-06
9.7961e-07
7.45118e-07
5.23293e-07
3.10419e-07
1.02879e-07
1.18177e-07
3.5655e-07
6.01016e-07
8.55721e-07
1.12492e-06
1.41301e-06
1.72461e-06
2.06456e-06
2.43802e-06
2.85045e-06
3.30773e-06
3.81617e-06
4.38254e-06
5.01417e-06
5.71898e-06
6.50554e-06
7.38308e-06
8.36165e-06
9.45205e-06
1.0666e-05
1.20161e-05
1.3516e-05
1.51803e-05
1.70249e-05
1.90666e-05
2.13237e-05
2.38156e-05
2.65631e-05
2.95884e-05
3.2915e-05
3.65681e-05
4.05743e-05
4.49617e-05
4.97601e-05
5.50006e-05
6.07163e-05
6.69414e-05
7.3712e-05
8.10655e-05
8.90407e-05
9.76779e-05
0.000107019
0.000117105
0.000127981
0.00013969
0.000152278
0.000165789
0.000180269
0.000195761
0.000212309
0.000229957
0.000248746
0.000268714
0.000289897
0.000312329
0.00033604
0.000361053
0.00038739
0.000415063
0.00044408
0.000474443
0.000506142
0.000539162
0.000573477
0.000609053
0.000645843
0.000683792
0.000722832
0.000762883
0.000803856
0.000845647
0.000888143
0.000931219
0.00097474
0.00101856
0.00106252
0.00110647
0.00115023
0.00119362
0.00123647
0.0012786
0.00131983
0.00135998
0.00139886
0.00143632
0.00147217
0.00150628
0.00153849
0.00156866
0.00159667
0.00162242
0.00164579
0.0016667
0.00168509
0.00170087
0.00171402
0.00172448
0.00173222
0.00173723
0.00173949
0.001739
0.00173575
0.00172977
0.00172107
0.00170968
0.00169563
0.00167898
0.00165977
0.00163808
0.00161398
0.00158757
0.00155894
0.00152821
0.00149551
0.00146097
0.00142474
0.00138698
0.00134785
0.00130751
0.00126616
0.00122395
0.00118108
0.00113771
0.00109403
0.00105021
0.0010064
0.00096278
0.000919491
0.000876675
0.000834466
0.000792984
0.000752341
0.000712635
0.000673953
0.000636372
0.000599958
0.000564762
0.000530829
0.000498192
0.000466873
0.000436888
0.000408242
0.000380934
0.000354954
0.000330288
0.000306915
0.00028481
0.000263941
0.000244277
0.00022578
0.00020841
0.000192127
0.000176888
0.000162649
0.000149366
0.000136994
0.000125488
0.000114803
0.000104897
9.57252e-05
8.72461e-05
7.94186e-05
7.22029e-05
6.55605e-05
5.94546e-05
5.38496e-05
4.87114e-05
4.40078e-05
3.97078e-05
3.57821e-05
3.22031e-05
2.89445e-05
2.59816e-05
2.32913e-05
2.08516e-05
1.86422e-05
1.66438e-05
1.48388e-05
1.32103e-05
1.1743e-05
1.04224e-05
9.23518e-06
8.16892e-06
7.21215e-06
6.35426e-06
5.58544e-06
4.89661e-06
4.27937e-06
3.72599e-06
3.22928e-06
2.78261e-06
2.37979e-06
2.0151e-06
1.68316e-06
1.37896e-06
1.09774e-06
8.34997e-07
5.86429e-07
3.47877e-07
1.15294e-07
1.31021e-07
3.953e-07
6.66322e-07
9.4868e-07
1.24708e-06
1.5664e-06
1.91173e-06
2.28845e-06
2.70223e-06
3.15916e-06
3.6657e-06
4.22884e-06
4.85607e-06
5.55548e-06
6.33583e-06
7.20656e-06
8.1779e-06
9.26092e-06
1.04676e-05
1.18107e-05
1.33044e-05
1.49635e-05
1.68043e-05
1.88442e-05
2.11019e-05
2.35974e-05
2.63521e-05
2.9389e-05
3.27325e-05
3.64087e-05
4.04451e-05
4.48712e-05
4.97179e-05
5.50179e-05
6.08058e-05
6.71177e-05
7.39915e-05
8.14669e-05
8.95851e-05
9.83889e-05
0.000107923
0.000118232
0.000129364
0.000141366
0.000154287
0.000168176
0.000183084
0.000199058
0.00021615
0.000234406
0.000253875
0.0002746
0.000296627
0.000319993
0.000344737
0.00037089
0.00039848
0.000427529
0.000458051
0.000490056
0.000523544
0.000558506
0.000594924
0.00063277
0.000672004
0.000712577
0.000754425
0.000797473
0.000841634
0.000886805
0.000932874
0.000979714
0.00102719
0.00107514
0.00112341
0.00117183
0.00122021
0.00126837
0.00131611
0.00136324
0.00140955
0.00145484
0.00149892
0.00154159
0.00158266
0.00162195
0.00165929
0.00169452
0.0017275
0.0017581
0.00178618
0.00181166
0.00183444
0.00185444
0.00187161
0.00188589
0.00189724
0.00190563
0.00191106
0.00191349
0.00191294
0.0019094
0.00190288
0.00189342
0.00188102
0.00186573
0.0018476
0.00182667
0.00180302
0.00177673
0.00174789
0.00171661
0.00168301
0.00164723
0.00160941
0.0015697
0.00152829
0.00148535
0.00144107
0.00139563
0.00134924
0.0013021
0.00125439
0.00120632
0.00115807
0.00110984
0.00106179
0.0010141
0.000966922
0.000920404
0.000874683
0.00082988
0.000786106
0.000743459
0.000702023
0.00066187
0.000623061
0.000585642
0.000549652
0.000515115
0.000482048
0.000450457
0.000420341
0.00039169
0.000364487
0.00033871
0.000314331
0.000291315
0.000269627
0.000249225
0.000230067
0.000212106
0.000195297
0.000179589
0.000164936
0.000151286
0.000138591
0.000126802
0.000115871
0.00010575
9.63918e-05
8.77524e-05
7.97875e-05
7.24548e-05
6.57136e-05
5.95248e-05
5.38509e-05
4.86562e-05
4.39068e-05
3.95703e-05
3.56163e-05
3.20159e-05
2.87418e-05
2.57685e-05
2.30718e-05
2.06294e-05
1.84201e-05
1.64241e-05
1.46233e-05
1.30004e-05
1.15396e-05
1.02262e-05
9.04639e-06
7.98764e-06
7.03818e-06
6.18719e-06
5.42463e-06
4.74125e-06
4.12848e-06
3.57839e-06
3.08366e-06
2.63744e-06
2.2334e-06
1.86561e-06
1.52851e-06
1.21684e-06
9.25626e-07
6.50097e-07
3.85653e-07
1.27816e-07
1.4399e-07
4.34424e-07
7.32258e-07
1.04253e-06
1.3704e-06
1.72122e-06
2.10058e-06
2.51436e-06
2.96882e-06
3.47057e-06
4.02675e-06
4.64498e-06
5.33347e-06
6.1011e-06
6.95745e-06
7.91285e-06
8.97851e-06
1.01665e-05
1.14899e-05
1.29629e-05
1.46007e-05
1.64197e-05
1.84377e-05
2.06735e-05
2.31477e-05
2.58822e-05
2.89004e-05
3.22273e-05
3.58896e-05
3.99158e-05
4.4336e-05
4.91823e-05
5.44885e-05
6.02904e-05
6.66256e-05
7.35336e-05
8.10558e-05
8.92355e-05
9.81176e-05
0.000107749
0.000118178
0.000129454
0.000141629
0.000154755
0.000168885
0.000184073
0.000200373
0.00021784
0.000236526
0.000256485
0.000277768
0.000300425
0.000324503
0.000350045
0.000377093
0.00040568
0.000435837
0.000467588
0.00050095
0.000535931
0.000572533
0.000610744
0.000650547
0.000691908
0.000734785
0.000779123
0.000824852
0.000871888
0.000920136
0.000969483
0.0010198
0.00107096
0.00112279
0.00117514
0.00122782
0.00128065
0.00133342
0.00138592
0.00143795
0.00148928
0.0015397
0.00158898
0.0016369
0.00168325
0.00172784
0.00177045
0.00181091
0.00184906
0.00188472
0.00191777
0.00194807
0.00197554
0.00200006
0.00202158
0.00204002
0.00205534
0.00206751
0.0020765
0.00208229
0.00208488
0.00208426
0.00208045
0.00207344
0.00206325
0.00204992
0.00203348
0.00201396
0.00199142
0.00196593
0.00193757
0.00190643
0.00187262
0.00183627
0.00179752
0.00175653
0.00171346
0.0016685
0.00162185
0.0015737
0.00152427
0.00147377
0.00142242
0.00137044
0.00131803
0.00126542
0.0012128
0.00116037
0.00110831
0.00105681
0.00100601
0.000956077
0.000907141
0.000859323
0.000812732
0.00076746
0.000723588
0.000681182
0.000640294
0.000600965
0.000563224
0.000527088
0.000492565
0.000459653
0.000428341
0.000398612
0.00037044
0.000343795
0.000318641
0.000294936
0.000272637
0.000251696
0.000232063
0.000213688
0.000196517
0.000180497
0.000165574
0.000151694
0.000138803
0.000126849
0.00011578
0.000105545
9.60951e-05
8.73821e-05
7.93599e-05
7.1984e-05
6.52118e-05
5.90024e-05
5.33168e-05
4.81179e-05
4.33705e-05
3.90412e-05
3.50986e-05
3.15129e-05
2.82562e-05
2.53021e-05
2.26262e-05
2.02053e-05
1.8018e-05
1.60442e-05
1.42652e-05
1.26636e-05
1.12235e-05
9.9297e-06
8.76848e-06
7.72699e-06
6.79337e-06
5.95666e-06
5.20673e-06
4.5342e-06
3.93038e-06
3.38724e-06
2.89731e-06
2.45362e-06
2.04969e-06
1.67941e-06
1.33703e-06
1.01709e-06
7.14358e-07
4.23782e-07
1.40454e-07
1.57097e-07
4.73963e-07
7.98888e-07
1.13736e-06
1.495e-06
1.87763e-06
2.29134e-06
2.74254e-06
3.23802e-06
3.785e-06
4.39122e-06
5.06498e-06
5.81522e-06
6.65157e-06
7.58444e-06
8.62508e-06
9.78564e-06
1.10793e-05
1.25202e-05
1.41237e-05
1.59064e-05
1.7886e-05
2.00818e-05
2.25144e-05
2.52061e-05
2.81804e-05
3.14628e-05
3.50806e-05
3.90625e-05
4.34395e-05
4.82443e-05
5.35116e-05
5.9278e-05
6.55823e-05
7.24652e-05
7.99697e-05
8.81405e-05
9.70245e-05
0.00010667
0.000117129
0.000128453
0.000140695
0.000153913
0.000168161
0.000183498
0.000199983
0.000217673
0.000236628
0.000256906
0.000278564
0.000301657
0.000326241
0.000352365
0.000380078
0.000409423
0.000440437
0.000473154
0.0005076
0.000543792
0.000581741
0.000621446
0.000662897
0.000706071
0.000750936
0.000797442
0.00084553
0.000895123
0.000946129
0.000998444
0.00105194
0.00110649
0.00116193
0.0012181
0.0012748
0.00133186
0.00138905
0.00144615
0.00150295