/*--------------------------------*- C++ -*----------------------------------*\
| =========                 |                                                 |
| \\      /  F ield         | OpenFOAM: The Open Source CFD Toolbox           |
|  \\    /   O peration     | Version:  3.0.1                                 |
|   \\  /    A nd           | Web:      www.OpenFOAM.org                      |
|    \\/     M anipulation  |                                                 |
\*---------------------------------------------------------------------------*/
FoamFile
{
    version     2.0;
    format      ascii;
    class       volScalarField;
    location    "1";
    object      ddt0(C);
}
// * * * * * * * * * * * * * * * * * * * * * * * * * * * * * * * * * * * * * //

dimensions      [0 -3 -1 0 1 0 0];

internalField   nonuniform List<scalar> 
80000
(
3.63129e-08
1.0121e-07
1.9373e-07
2.71906e-07
3.5397e-07
4.3826e-07
5.26522e-07
6.19849e-07
7.19237e-07
8.25604e-07
9.39879e-07
1.06288e-06
1.19546e-06
1.33868e-06
1.49339e-06
1.66035e-06
1.84056e-06
2.03498e-06
2.24443e-06
2.46968e-06
2.71148e-06
2.97086e-06
3.24871e-06
3.54517e-06
3.86082e-06
4.19688e-06
4.55365e-06
4.93066e-06
5.32826e-06
5.74712e-06
6.18679e-06
6.6463e-06
7.12551e-06
7.62361e-06
8.1391e-06
8.67069e-06
9.21711e-06
9.77586e-06
1.03435e-05
1.09174e-05
1.14955e-05
1.20735e-05
1.26458e-05
1.32073e-05
1.37536e-05
1.42794e-05
1.47775e-05
1.52404e-05
1.56612e-05
1.60315e-05
1.63419e-05
1.65838e-05
1.6749e-05
1.68277e-05
1.68084e-05
1.6679e-05
1.64294e-05
1.60507e-05
1.55323e-05
1.48625e-05
1.40307e-05
1.30267e-05
1.18418e-05
1.04672e-05
8.89512e-06
7.11994e-06
5.13783e-06
2.94561e-06
5.38974e-07
-2.08408e-06
-4.9208e-06
-7.96614e-06
-1.12125e-05
-1.46516e-05
-1.82738e-05
-2.20667e-05
-2.60142e-05
-3.01006e-05
-3.43056e-05
-3.8605e-05
-4.2972e-05
-4.73797e-05
-5.18003e-05
-5.62081e-05
-6.05744e-05
-6.48698e-05
-6.90581e-05
-7.31078e-05
-7.69882e-05
-8.06687e-05
-8.41184e-05
-8.73096e-05
-9.02167e-05
-9.28145e-05
-9.50845e-05
-9.70102e-05
-9.85702e-05
-9.97502e-05
-0.000100538
-0.000100928
-0.000100915
-0.000100503
-9.96948e-05
-9.85e-05
-9.69278e-05
-9.49925e-05
-9.27117e-05
-9.01033e-05
-8.71885e-05
-8.39911e-05
-8.05377e-05
-7.68567e-05
-7.29792e-05
-6.8937e-05
-6.47619e-05
-6.04846e-05
-5.61369e-05
-5.17495e-05
-4.73517e-05
-4.29711e-05
-3.86346e-05
-3.43678e-05
-3.01939e-05
-2.61352e-05
-2.22125e-05
-1.84441e-05
-1.48456e-05
-1.14304e-05
-8.20955e-06
-5.1917e-06
-2.38284e-06
2.13387e-07
2.59554e-06
4.76451e-06
6.72271e-06
8.47506e-06
1.00265e-05
1.13835e-05
1.25541e-05
1.3547e-05
1.43712e-05
1.50368e-05
1.55537e-05
1.59325e-05
1.61835e-05
1.63173e-05
1.63444e-05
1.62752e-05
1.61196e-05
1.58875e-05
1.55882e-05
1.52307e-05
1.48233e-05
1.43741e-05
1.38905e-05
1.33796e-05
1.28477e-05
1.23006e-05
1.17437e-05
1.11817e-05
1.0619e-05
1.00593e-05
9.50608e-06
8.9622e-06
8.43016e-06
7.91208e-06
7.40971e-06
6.9245e-06
6.4576e-06
6.00986e-06
5.58189e-06
5.17408e-06
4.7866e-06
4.41947e-06
4.07252e-06
3.74548e-06
3.43793e-06
3.14937e-06
2.87922e-06
2.62679e-06
2.39138e-06
2.1722e-06
1.96845e-06
1.7793e-06
1.60389e-06
1.44135e-06
1.29082e-06
1.15141e-06
1.02226e-06
9.02483e-07
7.91229e-07
6.8764e-07
5.90873e-07
5.00094e-07
4.14478e-07
3.33211e-07
2.55489e-07
1.80519e-07
1.07519e-07
3.57065e-08
1.00824e-07
2.78223e-07
5.24428e-07
7.67977e-07
1.01565e-06
1.27134e-06
1.53851e-06
1.82046e-06
2.11994e-06
2.43988e-06
2.78307e-06
3.152e-06
3.54945e-06
3.97843e-06
4.44148e-06
4.94115e-06
5.48034e-06
6.06182e-06
6.68812e-06
7.36161e-06
8.08469e-06
8.86032e-06
9.69062e-06
1.05767e-05
1.15208e-05
1.25254e-05
1.35913e-05
1.47183e-05
1.59073e-05
1.71593e-05
1.84731e-05
1.9847e-05
2.12795e-05
2.27681e-05
2.4309e-05
2.58981e-05
2.7531e-05
2.92002e-05
3.08965e-05
3.26124e-05
3.43393e-05
3.6065e-05
3.77746e-05
3.94527e-05
4.10851e-05
4.26546e-05
4.41406e-05
4.55223e-05
4.67774e-05
4.78805e-05
4.88051e-05
4.95245e-05
5.00125e-05
5.02403e-05
5.0174e-05
4.97794e-05
4.90263e-05
4.78846e-05
4.63224e-05
4.43076e-05
4.18079e-05
3.87927e-05
3.52352e-05
3.11092e-05
2.6392e-05
2.10678e-05
1.51228e-05
8.54507e-06
1.32578e-06
-6.53829e-06
-1.50413e-05
-2.41692e-05
-3.38999e-05
-4.42113e-05
-5.50718e-05
-6.64399e-05
-7.82696e-05
-9.05123e-05
-0.000103109
-0.000115988
-0.000129075
-0.000142286
-0.000155534
-0.000168743
-0.000181825
-0.000194692
-0.000207243
-0.000219378
-0.000231002
-0.000242023
-0.000252352
-0.00026191
-0.000270618
-0.000278402
-0.000285201
-0.000290956
-0.000295613
-0.00029913
-0.000301475
-0.000302628
-0.000302578
-0.000301331
-0.000298897
-0.000295299
-0.000290568
-0.000284749
-0.000277892
-0.000270053
-0.000261298
-0.000251698
-0.000241332
-0.000230285
-0.000218651
-0.000206522
-0.000193994
-0.000181161
-0.000168116
-0.000154952
-0.000141757
-0.000128615
-0.000115608
-0.000102813
-9.03009e-05
-7.81374e-05
-6.63844e-05
-5.50953e-05
-4.43166e-05
-3.40879e-05
-2.4442e-05
-1.54037e-05
-6.99034e-06
7.8706e-07
7.92413e-06
1.44233e-05
2.02921e-05
2.55434e-05
3.01924e-05
3.42592e-05
3.77671e-05
4.07415e-05
4.321e-05
4.5202e-05
4.6748e-05
4.78793e-05
4.86271e-05
4.90232e-05
4.90992e-05
4.88862e-05
4.84143e-05
4.77128e-05
4.68099e-05
4.57326e-05
4.45063e-05
4.31548e-05
4.17006e-05
4.01646e-05
3.85659e-05
3.69219e-05
3.52487e-05
3.35606e-05
3.18705e-05
3.01899e-05
2.85287e-05
2.68957e-05
2.52984e-05
2.37432e-05
2.22352e-05
2.07789e-05
1.93775e-05
1.80338e-05
1.67494e-05
1.55255e-05
1.43627e-05
1.3261e-05
1.22198e-05
1.12384e-05
1.03156e-05
9.44975e-06
8.63912e-06
7.88169e-06
7.1753e-06
6.51765e-06
5.90629e-06
5.33874e-06
4.81243e-06
4.32475e-06
3.87308e-06
3.4548e-06
3.06727e-06
2.7079e-06
2.37408e-06
2.06327e-06
1.77292e-06
1.50054e-06
1.24365e-06
9.99814e-07
7.6661e-07
5.41663e-07
3.22624e-07
1.07144e-07
1.91413e-07
5.21504e-07
8.88043e-07
1.28002e-06
1.68368e-06
2.10459e-06
2.54725e-06
3.01573e-06
3.51415e-06
4.04698e-06
4.61866e-06
5.23336e-06
5.89568e-06
6.61031e-06
7.38152e-06
8.21382e-06
9.1119e-06
1.00801e-05
1.11228e-05
1.22442e-05
1.34483e-05
1.47395e-05
1.61213e-05
1.75965e-05
1.91685e-05
2.08407e-05
2.26143e-05
2.44904e-05
2.64701e-05
2.85539e-05
3.07406e-05
3.30277e-05
3.54124e-05
3.78902e-05
4.04552e-05
4.31009e-05
4.58187e-05
4.85964e-05
5.1421e-05
5.42786e-05
5.71533e-05
6.00254e-05
6.28711e-05
6.56665e-05
6.8386e-05
7.09995e-05
7.34749e-05
7.57776e-05
7.78688e-05
7.97078e-05
8.12507e-05
8.24529e-05
8.32694e-05
8.36505e-05
8.35419e-05
8.2891e-05
8.1645e-05
7.975e-05
7.71537e-05
7.38034e-05
6.9646e-05
6.46333e-05
5.87176e-05
5.18545e-05
4.40082e-05
3.51503e-05
2.52562e-05
1.43077e-05
2.29185e-06
-1.07966e-05
-2.49482e-05
-4.01398e-05
-5.63375e-05
-7.35032e-05
-9.15832e-05
-0.000110511
-0.000130212
-0.000150597
-0.000171566
-0.000193003
-0.00021479
-0.000236789
-0.000258863
-0.000280868
-0.000302654
-0.000324072
-0.000344965
-0.000365175
-0.00038454
-0.000402903
-0.000420112
-0.000436028
-0.000450526
-0.000463485
-0.000474806
-0.000484382
-0.000492133
-0.000497984
-0.000501882
-0.000503792
-0.0005037
-0.000501616
-0.000497556
-0.000491557
-0.000483671
-0.000473968
-0.000462531
-0.000449458
-0.000434861
-0.000418861
-0.000401589
-0.000383187
-0.000363806
-0.000343602
-0.000322729
-0.000301348
-0.000279615
-0.000257681
-0.000235696
-0.000213804
-0.00019214
-0.000170834
-0.000150003
-0.000129758
-0.0001102
-9.14147e-05
-7.34804e-05
-5.64626e-05
-4.04144e-05
-2.53755e-05
-1.13749e-05
1.56858e-06
1.34478e-05
2.42663e-05
3.40359e-05
4.27759e-05
5.05128e-05
5.72797e-05
6.3115e-05
6.80605e-05
7.21624e-05
7.547e-05
7.80342e-05
7.99069e-05
8.11407e-05
8.1789e-05
8.19044e-05
8.15386e-05
8.07422e-05
7.9564e-05
7.80514e-05
7.62489e-05
7.41989e-05
7.19412e-05
6.95134e-05
6.69497e-05
6.4282e-05
6.15396e-05
5.8749e-05
5.59342e-05
5.31163e-05
5.03145e-05
4.75453e-05
4.48235e-05
4.21612e-05
3.95692e-05
3.70561e-05
3.46291e-05
3.22939e-05
3.00546e-05
2.79142e-05
2.58748e-05
2.39371e-05
2.21012e-05
2.03663e-05
1.87309e-05
1.71931e-05
1.57502e-05
1.43993e-05
1.3137e-05
1.19598e-05
1.08638e-05
9.84497e-06
8.89909e-06
8.02191e-06
7.20911e-06
6.45631e-06
5.75913e-06
5.1132e-06
4.51418e-06
3.95775e-06
3.43965e-06
2.95565e-06
2.5016e-06
2.07336e-06
1.66686e-06
1.27809e-06
9.03071e-07
5.37894e-07
1.78638e-07
2.65727e-07
7.55864e-07
1.26792e-06
1.80962e-06
2.37006e-06
2.95514e-06
3.57169e-06
4.22522e-06
4.92148e-06
5.66643e-06
6.46607e-06
7.32635e-06
8.25351e-06
9.25386e-06
1.03335e-05
1.14988e-05
1.27561e-05
1.41116e-05
1.55712e-05
1.71409e-05
1.88267e-05
2.0634e-05
2.25678e-05
2.46327e-05
2.68334e-05
2.91733e-05
3.16553e-05
3.42811e-05
3.7052e-05
3.99682e-05
4.30283e-05
4.62293e-05
4.95669e-05
5.30348e-05
5.66254e-05
6.0329e-05
6.41324e-05
6.80203e-05
7.1975e-05
7.59766e-05
8.00018e-05
8.40229e-05
8.80086e-05
9.19256e-05
9.57362e-05
9.93995e-05
0.000102871
0.000106101
0.000109037
0.000111621
0.000113793
0.00011549
0.000116648
0.000117195
0.000117059
0.000116168
0.000114446
0.000111818
0.00010821
0.000103545
9.77538e-05
9.07672e-05
8.25183e-05
7.29464e-05
6.20011e-05
4.96382e-05
3.58231e-05
2.05323e-05
3.74818e-06
-1.45354e-05
-3.43052e-05
-5.55329e-05
-7.81737e-05
-0.000102167
-0.000127437
-0.000153896
-0.000181441
-0.000209947
-0.00023927
-0.000269249
-0.000299714
-0.000330481
-0.000361362
-0.000392152
-0.000422637
-0.000452599
-0.000481821
-0.000510082
-0.000537165
-0.000562857
-0.000586942
-0.000609219
-0.000629509
-0.00064764
-0.000663471
-0.00067686
-0.000687697
-0.000695879
-0.000701332
-0.000704006
-0.000703882
-0.000700966
-0.000695284
-0.000686889
-0.000675856
-0.000662279
-0.000646273
-0.00062798
-0.000607555
-0.000585168
-0.000561004
-0.000535264
-0.000508156
-0.000479894
-0.000450698
-0.000420789
-0.000390387
-0.000359705
-0.000328953
-0.000298333
-0.000268037
-0.000238243
-0.000209119
-0.000180819
-0.000153481
-0.000127228
-0.000102167
-7.83881e-05
-5.59648e-05
-3.49523e-05
-1.53919e-05
2.69089e-06
1.92868e-05
3.44001e-05
4.80457e-05
6.02507e-05
7.10526e-05
8.04977e-05
8.86385e-05
9.55343e-05
0.00010125
0.000105855
0.00010942
0.000112018
0.000113723
0.00011461
0.000114753
0.000114223
0.000113093
0.00011143
0.000109301
0.000106768
0.000103889
0.000100721
9.73168e-05
9.37232e-05
8.9985e-05
8.61433e-05
8.22349e-05
7.8293e-05
7.43476e-05
7.0425e-05
6.65487e-05
6.27388e-05
5.90125e-05
5.53847e-05
5.18676e-05
4.84712e-05
4.52031e-05
4.20693e-05
3.9074e-05
3.62199e-05
3.35083e-05
3.0939e-05
2.8511e-05
2.62223e-05
2.407e-05
2.20506e-05
2.01599e-05
1.83932e-05
1.67454e-05
1.52113e-05
1.37851e-05
1.2461e-05
1.1233e-05
1.00951e-05
9.04119e-06
8.06509e-06
7.1607e-06
6.32195e-06
5.54281e-06
4.81731e-06
4.13954e-06
3.50368e-06
2.90395e-06
2.33465e-06
1.79015e-06
1.26491e-06
7.53428e-07
2.50222e-07
3.4105e-07
9.86047e-07
1.64592e-06
2.33914e-06
3.05807e-06
3.8091e-06
4.60035e-06
5.4393e-06
6.33343e-06
7.29037e-06
8.31781e-06
9.42352e-06
1.06153e-05
1.19013e-05
1.32893e-05
1.47875e-05
1.64039e-05
1.81464e-05
2.00228e-05
2.20408e-05
2.42078e-05
2.65309e-05
2.90164e-05
3.16706e-05
3.44992e-05
3.75064e-05
4.06961e-05
4.40708e-05
4.7632e-05
5.13798e-05
5.53123e-05
5.94262e-05
6.37155e-05
6.81727e-05
7.27881e-05
7.75483e-05
8.2437e-05
8.74347e-05
9.25191e-05
9.76646e-05
0.00010284
0.000108011
0.000113139
0.000118179
0.000123084
0.000127801
0.000132272
0.000136436
0.000140222
0.000143559
0.000146369
0.000148572
0.000150083
0.000150811
0.000150665
0.000149549
0.000147369
0.000144029
0.00013943
0.000133477
0.000126078
0.000117144
0.00010659
9.43403e-05
8.03283e-05
6.44954e-05
4.67962e-05
2.71977e-05
5.67952e-06
-1.77615e-05
-4.31094e-05
-7.03339e-05
-9.93793e-05
-0.000130165
-0.000162594
-0.000196551
-0.000231901
-0.000268489
-0.000306134
-0.000344627
-0.000383743
-0.000423248
-0.000462899
-0.000502437
-0.00054159
-0.000580078
-0.000617613
-0.000653908
-0.000688683
-0.000721672
-0.0007526
-0.000781213
-0.000807278
-0.000830573
-0.000850904
-0.000868096
-0.000882005
-0.000892504
-0.0008995
-0.000902935
-0.00090278
-0.000899035
-0.000891735
-0.000880952
-0.000866778
-0.000849334
-0.000828773
-0.000805276
-0.00077904
-0.000750284
-0.00071925
-0.000686194
-0.000651382
-0.000615087
-0.000577594
-0.000539186
-0.000500143
-0.000460741
-0.000421254
-0.00038194
-0.000343042
-0.000304793
-0.000267409
-0.000231087
-0.000196004
-0.000162318
-0.000130167
-9.96641e-05
-7.09024e-05
-4.39542e-05
-1.88722e-05
4.31266e-06
2.55886e-05
4.49596e-05
6.24448e-05
7.808e-05
9.19137e-05
0.000104004
0.00011442
0.000123237
0.000130539
0.000136416
0.000140958
0.000144259
0.000146416
0.000147523
0.000147677
0.000146969
0.000145492
0.000143334
0.000140579
0.000137306
0.000133592
0.000129508
0.000125122
0.000120494
0.000115683
0.00011074
0.000105712
0.000100642
9.55685e-05
9.05251e-05
8.55418e-05
8.06442e-05
7.58547e-05
7.1192e-05
6.66718e-05
6.23067e-05
5.81067e-05
5.40794e-05
5.02302e-05
4.65625e-05
4.30776e-05
3.97758e-05
3.66554e-05
3.3714e-05
3.09479e-05
2.83524e-05
2.59222e-05
2.36513e-05
2.15333e-05
1.95612e-05
1.77278e-05
1.60256e-05
1.44468e-05
1.29838e-05
1.16287e-05
1.03736e-05
9.21061e-06
8.13199e-06
7.12997e-06
6.19689e-06
5.32515e-06
4.50727e-06
3.73582e-06
3.0035e-06
2.30306e-06
1.62735e-06
9.69329e-07
3.21929e-07
4.15095e-07
1.2136e-06
2.02366e-06
2.86903e-06
3.74706e-06
4.66487e-06
5.63177e-06
6.65682e-06
7.74929e-06
8.91853e-06
1.0174e-05
1.15252e-05
1.29817e-05
1.45533e-05
1.62497e-05
1.80807e-05
2.00561e-05
2.21855e-05
2.44786e-05
2.69446e-05
2.95925e-05
3.24309e-05
3.54678e-05
3.87108e-05
4.21664e-05
4.58403e-05
4.97369e-05
5.38596e-05
5.821e-05
6.27882e-05
6.75921e-05
7.26174e-05
7.78572e-05
8.33026e-05
8.89411e-05
9.47568e-05
0.00010073
0.000106837
0.00011305
0.000119339
0.000125666
0.000131988
0.000138258
0.000144423
0.000150425
0.0001562
0.000161677
0.000166779
0.000171423
0.000175521
0.00017898
0.0001817
0.000183577
0.000184503
0.000184363
0.000183044
0.000180428
0.000176397
0.000170833
0.00016362
0.000154645
0.000143795
0.00013097
0.000116077
9.90341e-05
7.97706e-05
5.82286e-05
3.43636e-05
8.15311e-06
-2.04042e-05
-5.129e-05
-8.44661e-05
-0.000119865
-0.000157397
-0.000196943
-0.000238359
-0.000281475
-0.000326103
-0.000372022
-0.000418983
-0.000466714
-0.000514926
-0.000563314
-0.000611557
-0.000659333
-0.000706301
-0.00075211
-0.000796411
-0.000838859
-0.000879116
-0.000916854
-0.00095177
-0.000983578
-0.00101201
-0.00103682
-0.0010578
-0.00107477
-0.00108757
-0.0010961
-0.00110029
-0.0011001
-0.00109552
-0.00108661
-0.00107345
-0.00105615
-0.00103485
-0.00100976
-0.000981075
-0.00094905
-0.000913953
-0.000876079
-0.000835738
-0.000793251
-0.000748957
-0.000703203
-0.00065633
-0.000608683
-0.000560603
-0.000512421
-0.00046445
-0.000416991
-0.000370328
-0.000324727
-0.000280425
-0.00023764
-0.000196566
-0.000157369
-0.000120186
-8.51311e-05
-5.2293e-05
-2.17342e-05
6.50868e-06
3.24203e-05
5.60049e-05
7.72873e-05
9.63123e-05
0.000113138
0.000127836
0.00014049
0.000151195
0.000160054
0.000167172
0.000172664
0.000176643
0.000179229
0.000180537
0.000180682
0.000179781
0.000177943
0.000175277
0.000171884
0.000167862
0.000163305
0.000158299
0.000152926
0.000147261
0.000141373
0.000135326
0.000129177
0.000122978
0.000116776
0.000110612
0.000104522
9.85377e-05
9.26857e-05
8.69893e-05
8.14671e-05
7.61346e-05
7.1004e-05
6.60845e-05
6.13825e-05
5.69021e-05
5.26452e-05
4.86117e-05
4.47999e-05
4.12065e-05
3.78271e-05
3.46561e-05
3.1687e-05
2.89124e-05
2.63244e-05
2.39145e-05
2.1674e-05
1.95937e-05
1.76643e-05
1.58761e-05
1.42197e-05
1.26854e-05
1.12637e-05
9.94498e-06
8.71986e-06
7.57895e-06
6.51298e-06
5.5128e-06
4.56937e-06
3.67372e-06
2.81704e-06
1.99057e-06
1.18569e-06
3.93791e-07
4.88811e-07
1.4397e-06
2.40169e-06
3.4006e-06
4.43815e-06
5.52321e-06
6.66636e-06
7.8782e-06
9.1696e-06
1.05516e-05
1.20355e-05
1.36326e-05
1.5354e-05
1.72114e-05
1.92163e-05
2.13802e-05
2.37146e-05
2.6231e-05
2.89406e-05
3.18544e-05
3.4983e-05
3.83364e-05
4.19243e-05
4.57554e-05
4.98376e-05
5.41773e-05
5.878e-05
6.36496e-05
6.87881e-05
7.41956e-05
7.98695e-05
8.58048e-05
9.19941e-05
9.84261e-05
0.000105086
0.000111956
0.000119012
0.000126227
0.00013357
0.000141002
0.000148479
0.000155953
0.000163367
0.00017066
0.000177762
0.000184598
0.000191085
0.000197133
0.000202642
0.000207512
0.00021163
0.00021488
0.000217139
0.000218278
0.000218164
0.000216663
0.000213635
0.000208939
0.000202438
0.000193995
0.000183474
0.000170745
0.000155688
0.000138191
0.000118157
9.5505e-05
7.01626e-05
4.20788e-05
1.12266e-05
-2.23997e-05
-5.87792e-05
-9.78604e-05
-0.000139565
-0.00018379
-0.000230399
-0.000279222
-0.00033006
-0.000382683
-0.000436826
-0.0004922
-0.000548493
-0.000605362
-0.000662442
-0.000719355
-0.000775712
-0.000831107
-0.000885136
-0.000937393
-0.000987467
-0.00103495
-0.00107947
-0.00112066
-0.00115817
-0.0011917
-0.00122096
-0.0012457
-0.00126571
-0.0012808
-0.00129086
-0.00129579
-0.00129555
-0.00129016
-0.00127965
-0.00126411
-0.00124369
-0.00121857
-0.00118897
-0.00115513
-0.00111735
-0.00107595
-0.00103128
-0.000983686
-0.000933567
-0.00088132
-0.000827347
-0.000772055
-0.000715853
-0.000659144
-0.000602314
-0.000545735
-0.000489764
-0.00043474
-0.00038097
-0.00032874
-0.000278306
-0.000229896
-0.000183703
-0.000139891
-9.85951e-05
-5.99182e-05
-2.39323e-05
9.31905e-06
3.98165e-05
6.75663e-05
9.26002e-05
0.00011497
0.000134745
0.00015201
0.000166864
0.000179421
0.0001898
0.000198129
0.000204541
0.000209173
0.000212163
0.000213649
0.000213768
0.000212656
0.000210442
0.000207254
0.000203212
0.000198432
0.000193024
0.000187089
0.000180724
0.000174017
0.00016705
0.000159897
0.000152626
0.000145297
0.000137967
0.000130683
0.000123487
0.000116417
0.000109504
0.000102775
9.62521e-05
8.99538e-05
8.38941e-05
7.80838e-05
7.25305e-05
6.72389e-05
6.22111e-05
5.74471e-05
5.29448e-05
4.87004e-05
4.47085e-05
4.09627e-05
3.74551e-05
3.41772e-05
3.11195e-05
2.82722e-05
2.56247e-05
2.31664e-05
2.08862e-05
1.87728e-05
1.68149e-05
1.50013e-05
1.33206e-05
1.17616e-05
1.03131e-05
8.96408e-06
7.70356e-06
6.52075e-06
5.40496e-06
4.34564e-06
3.33234e-06
2.35474e-06
1.40263e-06
4.65844e-07
5.62538e-07
1.66532e-06
2.78014e-06
3.93377e-06
5.13158e-06
6.3844e-06
7.70436e-06
9.10357e-06
1.05945e-05
1.219e-05
1.39028e-05
1.57461e-05
1.77329e-05
1.98765e-05
2.21901e-05
2.4687e-05
2.73806e-05
3.02839e-05
3.341e-05
3.67714e-05
4.03804e-05
4.42486e-05
4.8387e-05
5.28057e-05
5.75136e-05
6.25183e-05
6.78263e-05
7.34417e-05
7.93671e-05
8.56024e-05
9.21448e-05
9.89889e-05
0.000106126
0.000113543
0.000121223
0.000129145
0.000137283
0.000145606
0.000154076
0.00016265
0.000171278
0.000179904
0.000188463
0.000196885
0.00020509
0.000212991
0.000220493
0.000227491
0.000233875
0.000239525
0.000244314
0.000248108
0.000250763
0.000252133
0.000252064
0.000250402
0.000246985
0.000241653
0.000234245
0.000224602
0.000212568
0.000197996
0.000180745
0.000160687
0.000137708
0.000111709
8.26109e-05
5.03572e-05
1.49145e-05
-2.37278e-05
-6.5545e-05
-0.000110479
-0.000158441
-0.000209308
-0.000262921
-0.000319092
-0.000377594
-0.000438156
-0.000500472
-0.000564208
-0.000629001
-0.00069446
-0.00076017
-0.000825697
-0.000890581
-0.000954353
-0.00101655
-0.0010767
-0.00113434
-0.001189
-0.00124025
-0.00128766
-0.00133084
-0.00136942
-0.0014031
-0.00143156
-0.00145457
-0.00147194
-0.00148351
-0.00148918
-0.0014889
-0.00148268
-0.00147057
-0.00145268
-0.00142917
-0.00140026
-0.00136618
-0.00132722
-0.00128373
-0.00123608
-0.00118465
-0.00112986
-0.00107216
-0.00101201
-0.000949879
-0.000886227
-0.00082153
-0.000756249
-0.000690829
-0.0006257
-0.000561279
-0.000497951
-0.000436071
-0.000375972
-0.000317948
-0.00026226
-0.000209129
-0.000158744
-0.000111263
-6.68025e-05
-2.54435e-05
1.27618e-05
4.77918e-05
7.96566e-05
0.000108394
0.000134062
0.00015674
0.000176528
0.000193543
0.000207914
0.000219778
0.000229284
0.000236587
0.000241844
0.000245214
0.000246856
0.000246929
0.000245588
0.000242983
0.000239259
0.000234558
0.000229011
0.000222743
0.000215874
0.000208511
0.000200759
0.00019271
0.000184449
0.000176055
0.000167597
0.000159139
0.000150735
0.000142434
0.00013428
0.000126307
0.000118548
0.000111026
0.000103764
9.67769e-05
9.00776e-05
8.36746e-05
7.75732e-05
7.17759e-05
6.62827e-05
6.1091e-05
5.61965e-05
5.15931e-05
4.72731e-05
4.32277e-05
3.94468e-05
3.59198e-05
3.26352e-05
2.9581e-05
2.67447e-05
2.41136e-05
2.16749e-05
1.94154e-05
1.73223e-05
1.53824e-05
1.35827e-05
1.19105e-05
1.03529e-05
8.89745e-06
7.53159e-06
6.24303e-06
5.0196e-06
3.84924e-06
2.72004e-06
1.62025e-06
5.38125e-07
6.36496e-07
1.89096e-06
3.15927e-06
4.46875e-06
5.82768e-06
7.24892e-06
8.74627e-06
1.03335e-05
1.20246e-05
1.3834e-05
1.57765e-05
1.78665e-05
2.01192e-05
2.25493e-05
2.5172e-05
2.80023e-05
3.10552e-05
3.43457e-05
3.78882e-05
4.16972e-05
4.57864e-05
5.01691e-05
5.48576e-05
5.98632e-05
6.51961e-05
7.08651e-05
7.68771e-05
8.32373e-05
8.99482e-05
9.70097e-05
0.000104419
0.00011217
0.000120253
0.000128653
0.000137352
0.000146325
0.000155543
0.000164971
0.000174567
0.000184282
0.000194061
0.000203838
0.000213543
0.000223095
0.000232405
0.000241374
0.000249895
0.00025785
0.000265115
0.000271554
0.000277024
0.000281373
0.000284439
0.000286056
0.000286052
0.000284249
0.000280467
0.000274525
0.000266239
0.000255429
0.000241918
0.000225538
0.000206131
0.000183553
0.000157673
0.000128375
9.55704e-05
5.9195e-05
1.92092e-05
-2.43952e-05
-7.15916e-05
-0.00012232
-0.000176482
-0.000233934
-0.000294496
-0.000357956
-0.000424053
-0.000492486
-0.000562912
-0.000634951
-0.000708184
-0.000782167
-0.000856437
-0.000930498
-0.00100383
-0.00107592
-0.00114622
-0.0012142
-0.00127933
-0.0013411
-0.00139901
-0.00145258
-0.00150136
-0.00154496
-0.001583
-0.00161515
-0.00164114
-0.00166075
-0.0016738
-0.00168019
-0.00167987
-0.00167283
-0.00165914
-0.00163892
-0.00161236
-0.00157968
-0.00154116
-0.00149715
-0.001448
-0.00139415
-0.00133602
-0.0012741
-0.00120889
-0.00114091
-0.00107068
-0.000998744
-0.000925622
-0.000851837
-0.000777894
-0.000704287
-0.000631483
-0.000559917
-0.000489996
-0.000422094
-0.000356545
-0.00029364
-0.000233631
-0.000176737
-0.000123131
-7.29443e-05
-2.62703e-05
1.68317e-05
5.63402e-05
9.22686e-05
0.000124658
0.000153575
0.000179111
0.00020138
0.000220515
0.000236661
0.000249975
0.000260627
0.000268791
0.000274646
0.00027837
0.000280146
0.000280154
0.000278566
0.000275555
0.000271284
0.000265913
0.000259589
0.000252456
0.000244645
0.000236282
0.000227482
0.000218348
0.000208979
0.000199461
0.000189874
0.000180288
0.000170766
0.000161363
0.000152126
0.000143096
0.000134307
0.000125789
0.000117565
0.000109653
0.000102066
9.48155e-05
8.7906e-05
8.13408e-05
7.51197e-05
6.92398e-05
6.36963e-05
5.84822e-05
5.35888e-05
4.9006e-05
4.47227e-05
4.07267e-05
3.7005e-05
3.3544e-05
3.03297e-05
2.73477e-05
2.45835e-05
2.20222e-05
1.96492e-05
1.74497e-05
1.5409e-05
1.35127e-05
1.17462e-05
1.00952e-05
8.54585e-06
7.08401e-06
5.69594e-06
4.368e-06
3.08668e-06
1.83868e-06
6.10675e-07
7.10766e-07
2.11707e-06
3.53948e-06
5.00579e-06
6.52678e-06
8.11723e-06
9.79268e-06
1.15685e-05
1.34605e-05
1.54847e-05
1.76573e-05
1.99948e-05
2.25139e-05
2.52311e-05
2.81634e-05
3.13274e-05
3.474e-05
3.84178e-05
4.23769e-05
4.66335e-05
5.12028e-05
5.60997e-05
6.13378e-05
6.69298e-05
7.28872e-05
7.92194e-05
8.59346e-05
9.30382e-05
0.000100533
0.00010842
0.000116695
0.000125351
0.000134378
0.000143759
0.000153473
0.000163495
0.000173791
0.000184322
0.000195043
0.000205897
0.000216824
0.000227753
0.000238603
0.000249286
0.000259702
0.000269741
0.000279284
0.000288201
0.000296353
0.000303589
0.000309749
0.000314663
0.000318153
0.000320034
0.000320111
0.000318188
0.000314065
0.000307537
0.000298399
0.000286452
0.000271498
0.000253346
0.000231822
0.000206765
0.000178024
0.000145475
0.000109014
6.85669e-05
2.40891e-05
-2.44246e-05
-7.69465e-05
-0.000133411
-0.000193708
-0.00025768
-0.000325132
-0.000395819
-0.000469445
-0.000545677
-0.000624139
-0.000704403
-0.000786002
-0.000868442
-0.000951197
-0.00103371
-0.00111541
-0.00119573
-0.00127405
-0.00134977
-0.00142232
-0.00149112
-0.00155561
-0.00161525
-0.00166957
-0.00171811
-0.00176045
-0.00179624
-0.00182516
-0.00184698
-0.0018615
-0.00186861
-0.00186823
-0.00186038
-0.00184513
-0.00182261
-0.00179302
-0.00175663
-0.00171373
-0.00166471
-0.00160998
-0.00154999
-0.00148524
-0.00141628
-0.00134364
-0.00126791
-0.00118967
-0.00110953
-0.00102806
-0.000945853
-0.000863471
-0.000781465
-0.000700354
-0.000620626
-0.000542738
-0.000467107
-0.0003941
-0.000324044
-0.000257227
-0.000193888
-0.000134219
-7.83669e-05
-2.64384e-05
2.1503e-05
6.54364e-05
0.000105376
0.000141367
0.000173485
0.000201833
0.000226541
0.000247755
0.000265638
0.000280368
0.000292135
0.000301132
0.000307557
0.000311614
0.000313504
0.000313427
0.000311578
0.000308147
0.000303317
0.000297266
0.000290159
0.000282153
0.000273398
0.00026403
0.000254179
0.00024396
0.000233482
0.000222841
0.000212126
0.000201415
0.000190776
0.000180272
0.000169954
0.000159869
0.000150054
0.000140542
0.000131358
0.000122523
0.000114052
0.000105954
9.82387e-05
9.09072e-05
8.39596e-05
7.73929e-05
7.12014e-05
6.53774e-05
5.99113e-05
5.47918e-05
5.00064e-05
4.55417e-05
4.1383e-05
3.75153e-05
3.39229e-05
3.05899e-05
2.74998e-05
2.46364e-05
2.19832e-05
1.95237e-05
1.72415e-05
1.51205e-05
1.31445e-05
1.12976e-05
9.56406e-06
7.92836e-06
6.37506e-06
4.88892e-06
3.45487e-06
2.05803e-06
6.83535e-07
7.85466e-07
2.34404e-06
3.92117e-06
5.54523e-06
7.22923e-06
8.9898e-06
1.08442e-05
1.28095e-05
1.49031e-05
1.71427e-05
1.95463e-05
2.2132e-05
2.49182e-05
2.79232e-05
3.11656e-05
3.46639e-05
3.84366e-05
4.2502e-05
4.6878e-05
5.15823e-05
5.66318e-05
6.20426e-05
6.78301e-05
7.40081e-05
8.05891e-05
8.7584e-05
9.50012e-05
0.000102847
0.000111125
0.000119835
0.000128973
0.000138532
0.000148501
0.00015886
0.000169589
0.000180656
0.000192028
0.00020366
0.000215502
0.000227494
0.000239568
0.000251646
0.00026364
0.000275453
0.000286975
0.000298085
0.000308653
0.000318535
0.000327578
0.000335617
0.000342474
0.000347963
0.000351889
0.000354045
0.00035422
0.000352196
0.000347752
0.00034066
0.000330697
0.000317641
0.000301272
0.000281384
0.000257781
0.000230281
0.000198721
0.000162964
0.000122894
7.84248e-05
2.95105e-05
-2.38592e-05
-8.1654e-05
-0.000143797
-0.000210164
-0.000280593
-0.000354865
-0.000432707
-0.000513795
-0.000597759
-0.000684177
-0.000772579
-0.000862459
-0.000953267
-0.00104442
-0.00113529
-0.00122528
-0.00131371
-0.00139994
-0.00148332
-0.00156319
-0.00163891
-0.00170988
-0.00177552
-0.00183529
-0.00188868
-0.00193526
-0.00197462
-0.00200643
-0.00203042
-0.00204638
-0.00205418
-0.00205375
-0.00204509
-0.00202829
-0.00200351
-0.00197095
-0.00193089
-0.00188369
-0.00182974
-0.0017695
-0.00170347
-0.0016322
-0.00155628
-0.00147631
-0.00139292
-0.00130678
-0.00121853
-0.00112881
-0.00103827
-0.000947545
-0.000857229
-0.000767897
-0.000680092
-0.00059432
-0.000511034
-0.000430642
-0.00035351
-0.000279953
-0.000210236
-0.000144568
-8.31147e-05
-2.59922e-05
2.67327e-05
7.50375e-05
0.000118936
0.000158478
0.00019375
0.000224868
0.000251974
0.000275228
0.000294814
0.000310929
0.00032378
0.000333582
0.000340554
0.000344922
0.000346907
0.00034673
0.000344604
0.000340742
0.000335345
0.000328606
0.000320708
0.000311826
0.000302122
0.000291749
0.000280845
0.000269541
0.000257954
0.000246192
0.000234351
0.000222515
0.000210763
0.00019916
0.000187765
0.000176628
0.000165789
0.000155286
0.000145145
0.000135389
0.000126034
0.000117094
0.000108573
0.000100477
9.28046e-05
8.55522e-05
7.87138e-05
7.22808e-05
6.62426e-05
6.05868e-05
5.52998e-05
5.03664e-05
4.57709e-05
4.14964e-05
3.75258e-05
3.38414e-05
3.04252e-05
2.72592e-05
2.43253e-05
2.16052e-05
1.9081e-05
1.67347e-05
1.45486e-05
1.25051e-05
1.05868e-05
8.77654e-06
7.05732e-06
5.41229e-06
3.82482e-06
2.27844e-06
7.56749e-07
8.60609e-07
2.57195e-06
4.3045e-06
6.08732e-06
7.93543e-06
9.86714e-06
1.19014e-05
1.40571e-05
1.63532e-05
1.88091e-05
2.14445e-05
2.42792e-05
2.73333e-05
3.06268e-05
3.41801e-05
3.80133e-05
4.21467e-05
4.66002e-05
5.13935e-05
5.65457e-05
6.20755e-05
6.80003e-05
7.4337e-05
8.11006e-05
8.83048e-05
9.59614e-05
0.00010408
0.000112667
0.000121726
0.000131257
0.000141257
0.000151718
0.000162625
0.000173961
0.0001857
0.000197811
0.000210256
0.000222986
0.000235946
0.000249073
0.000262291
0.000275516
0.000288652
0.000301593
0.000314219
0.000326401
0.000337993
0.000348842
0.000358779
0.000367625
0.000375185
0.000381257
0.000385626
0.000388069
0.000388354
0.000386244
0.000381495
0.000373861
0.000363095
0.000348953
0.000331199
0.000309606
0.000283956
0.000254051
0.000219712
0.000180787
0.000137148
8.87058e-05
3.54066e-05
-2.27653e-05
-8.5775e-05
-0.000153536
-0.000225918
-0.000302739
-0.000383759
-0.00046868
-0.000557155
-0.000648772
-0.000743063
-0.000839519
-0.000937586
-0.00103666
-0.00113609
-0.00123523
-0.00133338
-0.00142983
-0.00152386
-0.00161477
-0.00170183
-0.00178437
-0.00186171
-0.00193323
-0.00199834
-0.0020565
-0.00210722
-0.00215008
-0.00218471
-0.00221082
-0.00222818
-0.00223666
-0.00223616
-0.00222672
-0.00220841
-0.00218141
-0.00214592
-0.00210228
-0.00205085
-0.00199206
-0.0019264
-0.00185444
-0.00177676
-0.00169399
-0.0016068
-0.00151589
-0.00142196
-0.0013257
-0.00122785
-0.00112909
-0.00103012
-0.000931596
-0.00083414
-0.000738352
-0.00064478
-0.00055392
-0.000466224
-0.000382093
-0.000301871
-0.000225843
-0.000154242
-8.72506e-05
-2.49923e-05
3.24616e-05
8.50844e-05
0.00013289
0.000175936
0.000214319
0.000248165
0.000277629
0.00030289
0.000324147
0.000341616
0.000355525
0.000366107
0.000373606
0.000378267
0.000380331
0.000380038
0.000377626
0.000373323
0.00036735
0.000359917
0.000351225
0.000341463
0.00033081
0.00031943
0.000307475
0.000295087
0.000282393
0.000269512
0.000256546
0.00024359
0.000230726
0.000218029
0.000205559
0.000193372
0.000181514
0.000170022
0.000158927
0.000148252
0.000138018
0.000128235
0.000118912
0.000110053
0.000101657
9.37201e-05
8.62358e-05
7.91946e-05
7.25849e-05
6.63933e-05
6.06048e-05
5.5203e-05
5.01705e-05
4.5489e-05
4.11399e-05
3.71038e-05
3.3361e-05
2.9892e-05
2.66767e-05
2.36955e-05
2.09285e-05
1.83563e-05
1.59593e-05
1.37184e-05
1.16146e-05
9.62907e-06
7.74314e-06
5.93844e-06
4.19675e-06
2.50005e-06
8.30359e-07
9.36213e-07
2.80107e-06
4.68992e-06
6.63251e-06
8.64576e-06
1.07497e-05
1.29648e-05