/*--------------------------------*- C++ -*----------------------------------*\
| =========                 |                                                 |
| \\      /  F ield         | OpenFOAM: The Open Source CFD Toolbox           |
|  \\    /   O peration     | Version:  3.0.1                                 |
|   \\  /    A nd           | Web:      www.OpenFOAM.org                      |
|    \\/     M anipulation  |                                                 |
\*---------------------------------------------------------------------------*/
FoamFile
{
    version     2.0;
    format      ascii;
    class       volScalarField;
    location    "1";
    object      p;
}
// * * * * * * * * * * * * * * * * * * * * * * * * * * * * * * * * * * * * * //

dimensions      [1 -1 -2 0 0 0 0];

internalField   nonuniform List<scalar> 
80000
(
0
-1.87053
-4.45122
-6.77963
-8.55716
-10.0065
-11.2295
-12.2856
-13.214
-14.0419
-14.7881
-15.466
-16.0871
-16.6609
-17.1947
-17.6929
-18.1585
-18.5951
-19.0069
-19.3974
-19.7689
-20.1219
-20.4577
-20.7783
-21.0856
-21.3806
-21.6647
-21.9382
-22.2013
-22.455
-22.7006
-22.9385
-23.1687
-23.392
-23.6088
-23.819
-24.0229
-24.2213
-24.4142
-24.6016
-24.7838
-24.9614
-25.1341
-25.3021
-25.4657
-25.6253
-25.781
-25.9327
-26.0808
-26.2259
-26.3678
-26.5066
-26.6428
-26.7766
-26.908
-27.0371
-27.164
-27.289
-27.4121
-27.533
-27.6522
-27.7698
-27.8857
-28
-28.1127
-28.2241
-28.3343
-28.4429
-28.5501
-28.656
-28.7604
-28.8634
-28.9647
-29.0643
-29.1625
-29.259
-29.3538
-29.4469
-29.5385
-29.6284
-29.7168
-29.8035
-29.8886
-29.9722
-30.0544
-30.135
-30.2141
-30.2918
-30.3681
-30.4432
-30.5169
-30.5893
-30.6604
-30.7304
-30.7992
-30.8667
-30.9331
-30.9983
-31.0625
-31.1255
-31.1875
-31.2484
-31.3081
-31.3669
-31.4246
-31.4812
-31.5368
-31.5914
-31.645
-31.6978
-31.7497
-31.8007
-31.8509
-31.9003
-31.949
-31.9968
-32.0438
-32.0899
-32.1353
-32.18
-32.2239
-32.267
-32.3093
-32.3508
-32.3916
-32.4318
-32.4712
-32.51
-32.5481
-32.5856
-32.6226
-32.6589
-32.6946
-32.7295
-32.7639
-32.7976
-32.8307
-32.8633
-32.8952
-32.9265
-32.9573
-32.9875
-33.0172
-33.0464
-33.075
-33.1031
-33.1307
-33.1578
-33.1844
-33.2105
-33.2359
-33.2607
-33.2848
-33.3084
-33.3314
-33.3538
-33.3755
-33.3967
-33.4172
-33.4371
-33.4565
-33.4753
-33.4936
-33.5113
-33.5284
-33.545
-33.561
-33.5766
-33.5916
-33.6061
-33.6201
-33.6336
-33.6466
-33.6593
-33.6716
-33.6834
-33.6948
-33.7059
-33.7165
-33.7268
-33.7368
-33.7464
-33.7555
-33.7641
-33.7723
-33.7801
-33.7874
-33.7944
-33.8008
-33.8068
-33.8123
-33.8173
-33.8219
-33.826
-33.8294
-33.832
-33.8339
-33.836
-33.8386
-33.8412
-4.82493
-6.49761
-8.50485
-10.3581
-11.9207
-13.2502
-14.3985
-15.4043
-16.2974
-17.0999
-17.8279
-18.4929
-19.1037
-19.6686
-20.1946
-20.6867
-21.1485
-21.5822
-21.991
-22.3783
-22.7467
-23.0976
-23.4324
-23.7521
-24.0579
-24.3515
-24.6344
-24.9068
-25.1693
-25.4228
-25.6679
-25.9049
-26.1346
-26.3576
-26.5738
-26.7838
-26.9875
-27.1856
-27.378
-27.5653
-27.7473
-27.9245
-28.0969
-28.2646
-28.4281
-28.5875
-28.7428
-28.8941
-29.0421
-29.1869
-29.3285
-29.467
-29.603
-29.7365
-29.8677
-29.9965
-30.1233
-30.2481
-30.3708
-30.4916
-30.6105
-30.7277
-30.8435
-30.9576
-31.0701
-31.1813
-31.2913
-31.3997
-31.5067
-31.6124
-31.7167
-31.8195
-31.9206
-32.0202
-32.1182
-32.2146
-32.3092
-32.4021
-32.4936
-32.5835
-32.6717
-32.7582
-32.8432
-32.9268
-33.0088
-33.0893
-33.1684
-33.246
-33.3223
-33.3973
-33.471
-33.5433
-33.6144
-33.6844
-33.7531
-33.8206
-33.8869
-33.9522
-34.0164
-34.0794
-34.1414
-34.2022
-34.262
-34.3208
-34.3785
-34.4351
-34.4906
-34.5452
-34.5989
-34.6517
-34.7036
-34.7546
-34.8049
-34.8543
-34.903
-34.9509
-34.9979
-35.0441
-35.0896
-35.1343
-35.1783
-35.2214
-35.2638
-35.3053
-35.3463
-35.3865
-35.4261
-35.4649
-35.5031
-35.5407
-35.5778
-35.6142
-35.65
-35.685
-35.7194
-35.7533
-35.7865
-35.8191
-35.8511
-35.8825
-35.9133
-35.9436
-35.9733
-36.0025
-36.0312
-36.0593
-36.0869
-36.114
-36.1406
-36.1666
-36.192
-36.2167
-36.2409
-36.2644
-36.2874
-36.3097
-36.3314
-36.3524
-36.3729
-36.3928
-36.4122
-36.431
-36.4492
-36.4669
-36.4839
-36.5005
-36.5166
-36.5321
-36.5471
-36.5616
-36.5756
-36.5891
-36.6022
-36.615
-36.6273
-36.6391
-36.6505
-36.6616
-36.6723
-36.6826
-36.6926
-36.7022
-36.7113
-36.7199
-36.728
-36.7358
-36.7431
-36.75
-36.7564
-36.7623
-36.7677
-36.7726
-36.7772
-36.7813
-36.7849
-36.7877
-36.7893
-36.7903
-36.7919
-36.7939
-10.3597
-11.4589
-12.7972
-14.1845
-15.4777
-16.6425
-17.6833
-18.6164
-19.4577
-20.2217
-20.9208
-21.5643
-22.1589
-22.7105
-23.2247
-23.7071
-24.1614
-24.5895
-24.9938
-25.3767
-25.7406
-26.088
-26.4201
-26.7375
-27.0416
-27.3335
-27.6142
-27.8849
-28.1464
-28.3988
-28.6428
-28.879
-29.1079
-29.3301
-29.5456
-29.7549
-29.9581
-30.1558
-30.3478
-30.5343
-30.7159
-30.8927
-31.0646
-31.2319
-31.395
-31.5539
-31.7087
-31.8597
-32.0073
-32.1516
-32.2927
-32.4308
-32.5665
-32.6997
-32.8303
-32.9587
-33.0852
-33.2095
-33.3318
-33.4521
-33.5708
-33.6878
-33.803
-33.9166
-34.0289
-34.1399
-34.2495
-34.3575
-34.4643
-34.5698
-34.6739
-34.7763
-34.8771
-34.9765
-35.0743
-35.1704
-35.2648
-35.3576
-35.4489
-35.5385
-35.6265
-35.713
-35.7979
-35.8814
-35.9633
-36.0437
-36.1226
-36.2002
-36.2765
-36.3514
-36.425
-36.4972
-36.5683
-36.6383
-36.707
-36.7744
-36.8407
-36.906
-36.9702
-37.0333
-37.0952
-37.156
-37.2159
-37.2747
-37.3323
-37.3889
-37.4444
-37.499
-37.5527
-37.6055
-37.6574
-37.7084
-37.7587
-37.8082
-37.8569
-37.9048
-37.9518
-37.9981
-38.0436
-38.0885
-38.1325
-38.1756
-38.218
-38.2598
-38.3008
-38.3411
-38.3808
-38.4197
-38.458
-38.4958
-38.533
-38.5696
-38.6054
-38.6406
-38.6751
-38.7091
-38.7424
-38.7751
-38.8071
-38.8386
-38.8694
-38.8997
-38.9295
-38.9587
-38.9873
-39.0154
-39.043
-39.0701
-39.0967
-39.1226
-39.1479
-39.1725
-39.1965
-39.22
-39.2428
-39.2651
-39.2866
-39.3076
-39.3279
-39.3478
-39.3671
-39.3859
-39.404
-39.4217
-39.4387
-39.4553
-39.4714
-39.487
-39.5021
-39.5166
-39.5307
-39.5443
-39.5575
-39.5703
-39.5827
-39.5947
-39.6062
-39.6173
-39.6281
-39.6386
-39.6486
-39.6582
-39.6673
-39.6759
-39.684
-39.6917
-39.699
-39.7058
-39.7121
-39.718
-39.7233
-39.7281
-39.7325
-39.7365
-39.7401
-39.7433
-39.7452
-39.7458
-39.7463
-39.7474
-15.642
-16.2661
-17.1384
-18.1475
-19.175
-20.1566
-21.0711
-21.9147
-22.6911
-23.4061
-24.067
-24.6808
-25.2529
-25.7867
-26.2863
-26.7559
-27.1989
-27.6184
-28.016
-28.393
-28.7517
-29.0942
-29.4218
-29.7358
-30.0371
-30.3265
-30.6049
-30.8734
-31.1326
-31.3835
-31.6261
-31.861
-32.0887
-32.3098
-32.5243
-32.7326
-32.9351
-33.1319
-33.3231
-33.5091
-33.6901
-33.866
-34.0372
-34.204
-34.3665
-34.5247
-34.6788
-34.8293
-34.9764
-35.12
-35.2604
-35.3981
-35.5332
-35.6658
-35.7958
-35.9238
-36.0497
-36.1735
-36.2952
-36.4151
-36.5333
-36.6496
-36.7643
-36.8775
-36.9894
-37.0999
-37.2089
-37.3166
-37.4231
-37.5282
-37.6318
-37.7339
-37.8345
-37.9336
-38.0311
-38.1268
-38.2209
-38.3135
-38.4046
-38.4941
-38.5819
-38.6681
-38.7529
-38.8363
-38.9181
-38.9983
-39.0771
-39.1547
-39.2309
-39.3058
-39.3792
-39.4515
-39.5227
-39.5926
-39.6612
-39.7286
-39.795
-39.8603
-39.9245
-39.9875
-40.0494
-40.1102
-40.1701
-40.2289
-40.2865
-40.343
-40.3985
-40.4531
-40.5068
-40.5596
-40.6114
-40.6625
-40.7128
-40.7623
-40.811
-40.8588
-40.9059
-40.9522
-40.9978
-41.0427
-41.0867
-41.1299
-41.1724
-41.2143
-41.2554
-41.2958
-41.3356
-41.3746
-41.4131
-41.4511
-41.4884
-41.5251
-41.5611
-41.5963
-41.631
-41.6651
-41.6986
-41.7313
-41.7634
-41.7949
-41.8258
-41.8561
-41.8859
-41.915
-41.9435
-41.9716
-41.9991
-42.0261
-42.0525
-42.0783
-42.1034
-42.1278
-42.1517
-42.175
-42.1977
-42.2198
-42.2412
-42.262
-42.2822
-42.302
-42.3212
-42.3399
-42.3581
-42.3757
-42.3928
-42.4094
-42.4256
-42.4413
-42.4564
-42.4711
-42.4853
-42.4991
-42.5125
-42.5255
-42.538
-42.5501
-42.5618
-42.5731
-42.5841
-42.5947
-42.6048
-42.6145
-42.6236
-42.6322
-42.6403
-42.648
-42.6553
-42.662
-42.6682
-42.6739
-42.6791
-42.6839
-42.6882
-42.6919
-42.6952
-42.6983
-42.7008
-42.7019
-42.7021
-42.7024
-20.3733
-20.7824
-21.3852
-22.1286
-22.934
-23.7455
-24.5319
-25.2795
-25.9835
-26.6435
-27.2608
-27.8393
-28.3828
-28.8944
-29.3764
-29.8308
-30.2606
-30.6688
-31.0569
-31.4265
-31.779
-32.1155
-32.4377
-32.7471
-33.0443
-33.3304
-33.6059
-33.8717
-34.1284
-34.3769
-34.6175
-34.8508
-35.077
-35.2965
-35.5097
-35.7169
-35.9183
-36.1139
-36.3041
-36.4892
-36.6692
-36.8443
-37.0147
-37.1807
-37.3423
-37.4996
-37.6531
-37.8029
-37.9491
-38.0919
-38.2317
-38.3688
-38.5031
-38.6349
-38.7643
-38.8917
-39.0169
-39.1399
-39.261
-39.3803
-39.4978
-39.6135
-39.7275
-39.8402
-39.9515
-40.0614
-40.1699
-40.2772
-40.3832
-40.4879
-40.591
-40.6926
-40.7928
-40.8916
-40.9886
-41.084
-41.1778
-41.2702
-41.3611
-41.4502
-41.5377
-41.6239
-41.7086
-41.7918
-41.8734
-41.9535
-42.0323
-42.1099
-42.186
-42.2607
-42.3342
-42.4065
-42.4776
-42.5475
-42.6161
-42.6835
-42.7499
-42.8152
-42.8794
-42.9424
-43.0043
-43.0652
-43.125
-43.1837
-43.2413
-43.2978
-43.3533
-43.4079
-43.4615
-43.5142
-43.566
-43.617
-43.6673
-43.7168
-43.7655
-43.8133
-43.8604
-43.9068
-43.9524
-43.9973
-44.0414
-44.0846
-44.1272
-44.1692
-44.2104
-44.2509
-44.2908
-44.33
-44.3687
-44.4068
-44.4443
-44.4811
-44.5172
-44.5526
-44.5875
-44.6217
-44.6552
-44.688
-44.7201
-44.7516
-44.7826
-44.8129
-44.8426
-44.8716
-44.9001
-44.928
-44.9554
-44.9823
-45.0085
-45.0341
-45.0589
-45.0832
-45.1069
-45.13
-45.1525
-45.1743
-45.1955
-45.2162
-45.2363
-45.256
-45.2751
-45.2937
-45.3118
-45.3294
-45.3466
-45.3633
-45.3796
-45.3954
-45.4107
-45.4255
-45.4399
-45.4539
-45.4676
-45.4808
-45.4936
-45.5059
-45.5178
-45.5293
-45.5405
-45.5512
-45.5615
-45.5712
-45.5804
-45.589
-45.5972
-45.6048
-45.612
-45.6186
-45.6247
-45.6302
-45.6352
-45.6399
-45.6442
-45.6479
-45.6509
-45.6535
-45.6559
-45.6576
-45.6582
-45.6583
-24.7766
-25.0658
-25.5038
-26.064
-26.6993
-27.3667
-28.036
-28.6901
-29.32
-29.9215
-30.4928
-31.0334
-31.5453
-32.031
-32.4917
-32.929
-33.3444
-33.7395
-34.1163
-34.4765
-34.8209
-35.1507
-35.4669
-35.7708
-36.063
-36.3448
-36.6166
-36.8791
-37.1329
-37.3787
-37.6168
-37.8478
-38.0721
-38.2899
-38.5014
-38.7071
-38.907
-39.1013
-39.2904
-39.4743
-39.6531
-39.8271
-39.9966
-40.1616
-40.3222
-40.4785
-40.6312
-40.78
-40.9253
-41.0672
-41.2063
-41.3425
-41.4759
-41.6069
-41.7356
-41.8622
-41.9865
-42.1087
-42.2291
-42.3477
-42.4644
-42.5793
-42.6928
-42.8048
-42.9155
-43.0247
-43.1326
-43.2394
-43.3449
-43.449
-43.5516
-43.6528
-43.7526
-43.8509
-43.9474
-44.0425
-44.1361
-44.2281
-44.3186
-44.4075
-44.4949
-44.5809
-44.6654
-44.7483
-44.8297
-44.9098
-44.9886
-45.066
-45.142
-45.2167
-45.2902
-45.3625
-45.4336
-45.5034
-45.572
-45.6395
-45.7059
-45.7712
-45.8353
-45.8982
-45.9602
-46.0211
-46.0809
-46.1395
-46.197
-46.2535
-46.309
-46.3635
-46.4171
-46.4697
-46.5215
-46.5725
-46.6228
-46.6722
-46.7208
-46.7686
-46.8157
-46.8621
-46.9078
-46.9527
-46.9968
-47.0401
-47.0828
-47.1249
-47.1662
-47.2068
-47.2468
-47.2862
-47.3251
-47.3634
-47.401
-47.4379
-47.4741
-47.5097
-47.5447
-47.579
-47.6126
-47.6454
-47.6776
-47.7092
-47.7401
-47.7704
-47.8
-47.8289
-47.8573
-47.8851
-47.9124
-47.9391
-47.9651
-47.9904
-48.015
-48.0391
-48.0626
-48.0855
-48.1077
-48.1293
-48.1503
-48.1708
-48.1908
-48.2104
-48.2294
-48.248
-48.2661
-48.2837
-48.3009
-48.3177
-48.3341
-48.35
-48.3655
-48.3805
-48.3952
-48.4094
-48.4233
-48.4368
-48.4497
-48.4623
-48.4744
-48.4862
-48.4976
-48.5085
-48.5188
-48.5286
-48.5379
-48.5465
-48.5546
-48.5622
-48.5693
-48.5758
-48.5817
-48.5871
-48.5919
-48.5964
-48.6006
-48.6043
-48.6073
-48.6097
-48.6117
-48.6134
-48.6144
-48.6148
-28.954
-29.1684
-29.499
-29.9326
-30.4396
-30.9901
-31.5588
-32.1278
-32.6868
-33.2301
-33.7537
-34.2555
-34.7351
-35.1928
-35.6301
-36.048
-36.447
-36.8282
-37.1929
-37.5421
-37.8771
-38.199
-38.5083
-38.8059
-39.0926
-39.3693
-39.6366
-39.8952
-40.1455
-40.3881
-40.6234
-40.8519
-41.0737
-41.2893
-41.4991
-41.7029
-41.901
-42.0938
-42.2815
-42.4639
-42.6414
-42.8142
-42.9825
-43.1462
-43.3056
-43.461
-43.6126
-43.7603
-43.9045
-44.0456
-44.1838
-44.3189
-44.4514
-44.5816
-44.7095
-44.8351
-44.9586
-45.08
-45.1997
-45.3174
-45.4332
-45.5474
-45.6602
-45.7715
-45.8814
-45.99
-46.0974
-46.2036
-46.3084
-46.4119
-46.514
-46.6148
-46.7141
-46.8118
-46.908
-47.0027
-47.0959
-47.1876
-47.2777
-47.3663
-47.4536
-47.5394
-47.6236
-47.7063
-47.7876
-47.8677
-47.9464
-48.0236
-48.0996
-48.1742
-48.2477
-48.32
-48.391
-48.4608
-48.5294
-48.5969
-48.6633
-48.7285
-48.7926
-48.8555
-48.9175
-48.9784
-49.0381
-49.0966
-49.1541
-49.2105
-49.266
-49.3204
-49.3739
-49.4264
-49.4782
-49.5292
-49.5794
-49.6288
-49.6774
-49.7252
-49.7723
-49.8187
-49.8644
-49.9092
-49.9534
-49.9968
-50.0396
-50.0817
-50.1231
-50.1639
-50.204
-50.2435
-50.2826
-50.321
-50.3588
-50.3958
-50.4322
-50.4679
-50.503
-50.5374
-50.571
-50.6039
-50.6362
-50.6678
-50.6987
-50.7289
-50.7584
-50.7872
-50.8154
-50.8431
-50.8702
-50.8967
-50.9225
-50.9475
-50.972
-50.9959
-51.0191
-51.0418
-51.0638
-51.0852
-51.106
-51.1264
-51.1463
-51.1658
-51.1847
-51.2032
-51.2213
-51.239
-51.2563
-51.2732
-51.2897
-51.3058
-51.3214
-51.3366
-51.3515
-51.366
-51.3801
-51.3938
-51.4069
-51.4197
-51.432
-51.444
-51.4555
-51.4666
-51.477
-51.4869
-51.4961
-51.5048
-51.5128
-51.5204
-51.5273
-51.5336
-51.5394
-51.5447
-51.5494
-51.5537
-51.5576
-51.5612
-51.5643
-51.5667
-51.5686
-51.5701
-51.5713
-51.5719
-32.9652
-33.1291
-33.387
-33.7311
-34.1419
-34.5987
-35.0825
-35.5772
-36.072
-36.5597
-37.0364
-37.4993
-37.9459
-38.3755
-38.7887
-39.1855
-39.5667
-39.9329
-40.2844
-40.622
-40.9468
-41.2596
-41.5608
-41.8515
-42.132
-42.4031
-42.6654
-42.9194
-43.1657
-43.4047
-43.6368
-43.8622
-44.0814
-44.2946
-44.502
-44.7036
-44.8999
-45.0909
-45.2768
-45.4576
-45.6336
-45.805
-45.9719
-46.1342
-46.2924
-46.4467
-46.597
-46.7435
-46.8867
-47.0268
-47.1638
-47.298
-47.4295
-47.5588
-47.6858
-47.8104
-47.933
-48.0537
-48.1724
-48.2892
-48.4042
-48.5177
-48.6298
-48.7403
-48.8495
-48.9575
-49.0643
-49.1699
-49.2741
-49.3769
-49.4786
-49.5789
-49.6776
-49.7749
-49.8706
-49.9649
-50.0578
-50.1491
-50.2389
-50.3272
-50.4143
-50.4998
-50.5838
-50.6663
-50.7475
-50.8275
-50.906
-50.9831
-51.059
-51.1336
-51.2071
-51.2793
-51.3502
-51.4199
-51.4885
-51.5561
-51.6224
-51.6875
-51.7515
-51.8145
-51.8764
-51.9373
-51.9969
-52.0553
-52.1127
-52.1691
-52.2245
-52.2788
-52.3322
-52.3847
-52.4365
-52.4874
-52.5376
-52.5869
-52.6354
-52.6832
-52.7303
-52.7767
-52.8224
-52.8672
-52.9114
-52.955
-52.9978
-53.04
-53.0815
-53.1223
-53.1626
-53.2023
-53.2415
-53.28
-53.3179
-53.355
-53.3915
-53.4274
-53.4626
-53.497
-53.5307
-53.5636
-53.5959
-53.6275
-53.6583
-53.6884
-53.7178
-53.7466
-53.7747
-53.8023
-53.8292
-53.8555
-53.881
-53.9059
-53.9301
-53.9538
-53.9769
-53.9993
-54.0212
-54.0424
-54.0631
-54.0834
-54.1032
-54.1226
-54.1415
-54.16
-54.1781
-54.1958
-54.2132
-54.2303
-54.2469
-54.263
-54.2788
-54.2942
-54.3093
-54.324
-54.3382
-54.3521
-54.3654
-54.3783
-54.3908
-54.4029
-54.4146
-54.4257
-54.4361
-54.446
-54.4552
-54.4638
-54.4719
-54.4793
-54.4862
-54.4924
-54.498
-54.5031
-54.5078
-54.5119
-54.5157
-54.519
-54.522
-54.5246
-54.5265
-54.5281
-54.5292
-54.5299
-36.8496
-36.9781
-37.1839
-37.4631
-37.8017
-38.1841
-38.5967
-39.0273
-39.4651
-39.9024
-40.3349
-40.7591
-41.1731
-41.575
-41.9636
-42.3391
-42.7018
-43.0517
-43.3891
-43.7145
-44.0285
-44.3314
-44.624
-44.9069
-45.1806
-45.4455
-45.7022
-45.9512
-46.193
-46.4279
-46.6563
-46.8784
-47.0945
-47.305
-47.5097
-47.709
-47.9032
-48.0921
-48.276
-48.455
-48.6294
-48.7992
-48.9644
-49.1253
-49.2822
-49.4351
-49.584
-49.7294
-49.8715
-50.0104
-50.1463
-50.2794
-50.4101
-50.5384
-50.6643
-50.788
-50.9097
-51.0295
-51.1474
-51.2632
-51.3775
-51.4903
-51.6016
-51.7114
-51.8199
-51.9273
-52.0335
-52.1384
-52.242
-52.3444
-52.4456
-52.5453
-52.6435
-52.7402
-52.8356
-52.9296
-53.022
-53.1129
-53.2024
-53.2905
-53.3773
-53.4625
-53.5462
-53.6286
-53.7097
-53.7894
-53.8678
-53.9448
-54.0206
-54.0952
-54.1685
-54.2406
-54.3115
-54.3811
-54.4497
-54.5172
-54.5834
-54.6484
-54.7124
-54.7754
-54.8372
-54.8979
-54.9574
-55.0158
-55.0732
-55.1295
-55.1848
-55.239
-55.2923
-55.3447
-55.3965
-55.4474
-55.4974
-55.5466
-55.5951
-55.6429
-55.69
-55.7364
-55.782
-55.8269
-55.8711
-55.9148
-55.9577
-55.9999
-56.0414
-56.0823
-56.1227
-56.1626
-56.2019
-56.2405
-56.2784
-56.3157
-56.3523
-56.3883
-56.4235
-56.4579
-56.4916
-56.5246
-56.5568
-56.5884
-56.6192
-56.6492
-56.6784
-56.7071
-56.7351
-56.7626
-56.7893
-56.8154
-56.8408
-56.8655
-56.8897
-56.9132
-56.9361
-56.9584
-56.9801
-57.0012
-57.0219
-57.0421
-57.0619
-57.0812
-57.1001
-57.1186
-57.1367
-57.1545
-57.172
-57.1891
-57.2058
-57.2221
-57.238
-57.2535
-57.2687
-57.2835
-57.2979
-57.3118
-57.3252
-57.3382
-57.3508
-57.363
-57.3746
-57.3858
-57.3962
-57.4061
-57.4153
-57.4238
-57.4318
-57.4392
-57.4459
-57.452
-57.4575
-57.4625
-57.467
-57.4712
-57.4749
-57.4781
-57.481
-57.4835
-57.4856
-57.4872
-57.4884
-57.4892
-40.6347
-40.7376
-40.9047
-41.1348
-41.4181
-41.7421
-42.0963
-42.4713
-42.8586
-43.2509
-43.6427
-44.0308
-44.413
-44.7871
-45.1515
-45.506
-45.8498
-46.1829
-46.5057
-46.8183
-47.1206
-47.4133
-47.6967
-47.9713
-48.2374
-48.4957
-48.7464
-48.9899
-49.2268
-49.4572
-49.6815
-49.9
-50.1128
-50.3201
-50.522
-50.7187
-50.9104
-51.097
-51.2787
-51.4558
-51.6284
-51.7963
-51.9598
-52.1193
-52.2746
-52.4259
-52.5735
-52.7177
-52.8586
-52.9962
-53.131
-53.2631
-53.3928
-53.52
-53.6449
-53.7678
-53.8887
-54.0076
-54.1244
-54.2396
-54.3532
-54.4652
-54.5757
-54.6848
-54.7928
-54.8996
-55.0051
-55.1094
-55.2125
-55.3144
-55.4151
-55.5142
-55.6119
-55.7083
-55.8032
-55.8968
-55.9888
-56.0793
-56.1685
-56.2564
-56.3428
-56.4277
-56.5112
-56.5934
-56.6743
-56.7538
-56.832
-56.9088
-56.9845
-57.059
-57.1322
-57.2041
-57.2748
-57.3445
-57.413
-57.4803
-57.5463
-57.6113
-57.6752
-57.7381
-57.7998
-57.8604
-57.9198
-57.9781
-58.0354
-58.0916
-58.1467
-58.2008
-58.2541
-58.3065
-58.3582
-58.409
-58.4589
-58.5081
-58.5566
-58.6044
-58.6515
-58.6978
-58.7434
-58.7883
-58.8326
-58.8762
-58.9192
-58.9614
-59.003
-59.044
-59.0845
-59.1244
-59.1637
-59.2024
-59.2404
-59.2777
-59.3144
-59.3504
-59.3856
-59.42
-59.4537
-59.4866
-59.5189
-59.5503
-59.581
-59.6109
-59.6401
-59.6687
-59.6967
-59.724
-59.7506
-59.7766
-59.8018
-59.8265
-59.8505
-59.8739
-59.8968
-59.919
-59.9406
-59.9617
-59.9823
-60.0025
-60.0223
-60.0416
-60.0605
-60.079
-60.0973
-60.1152
-60.1327
-60.1499
-60.1666
-60.1829
-60.1989
-60.2145
-60.2297
-60.2446
-60.259
-60.2729
-60.2863
-60.2993
-60.3119
-60.3241
-60.3357
-60.3468
-60.3572
-60.367
-60.3761
-60.3847
-60.3926
-60.3998
-60.4065
-60.4125
-60.418
-60.4229
-60.4274
-60.4316
-60.4353
-60.4385
-60.4413
-60.4438
-60.4459
-60.4476
-60.4489
-60.4498
-44.3393
-44.4239
-44.5619
-44.7538
-44.9931
-45.2709
-45.5774
-45.9053
-46.2482
-46.5998
-46.955
-47.3099
-47.6618
-48.0089
-48.3499
-48.6833
-49.0083
-49.3248
-49.6327
-49.9317
-50.2221
-50.5041
-50.7779
-51.0437
-51.302
-51.5531
-51.7973
-52.035
-52.2666
-52.4922
-52.7121
-52.9266
-53.1357
-53.3396
-53.5384
-53.7324
-53.9213
-54.1053
-54.2849
-54.4598
-54.6302
-54.7962
-54.958
-55.1157
-55.2694
-55.4191
-55.5654
-55.7082
-55.8477
-55.9841
-56.1178
-56.2489
-56.3775
-56.5037
-56.6277
-56.7497
-56.8697
-56.9876
-57.1037
-57.2181
-57.331
-57.4423
-57.5521
-57.6606
-57.768
-57.8742
-57.9792
-58.0829
-58.1855
-58.287
-58.3871
-58.4857
-58.583
-58.679
-58.7735
-58.8666
-58.9581
-59.0484
-59.1373
-59.2248
-59.3109
-59.3954
-59.4787
-59.5607
-59.6414
-59.7206
-59.7985
-59.8752
-59.9507
-60.025
-60.098
-60.1697
-60.2403
-60.3098
-60.3782
-60.4453
-60.5112
-60.576
-60.6398
-60.7026
-60.7642
-60.8246
-60.8838
-60.9421
-60.9992
-61.0553
-61.1103
-61.1643
-61.2175
-61.2699
-61.3214
-61.3722
-61.422
-61.4712
-61.5197
-61.5674
-61.6145
-61.6608
-61.7063
-61.7513
-61.7956
-61.8393
-61.8822
-61.9244
-61.966
-62.0071
-62.0476
-62.0876
-62.1269
-62.1656
-62.2036
-62.2409
-62.2776
-62.3136
-62.3487
-62.3831
-62.4167
-62.4496
-62.4818
-62.5132
-62.5438
-62.5736
-62.6027
-62.6312
-62.6591
-62.6863
-62.7129
-62.7388
-62.764
-62.7886
-62.8126
-62.836
-62.8588
-62.8809
-62.9026
-62.9237
-62.9444
-62.9647
-62.9844
-63.0038
-63.0227
-63.0413
-63.0596
-63.0775
-63.0951
-63.1123
-63.129
-63.1453
-63.1613
-63.1769
-63.1922
-63.2069
-63.2212
-63.235
-63.2484
-63.2614
-63.2739
-63.286
-63.2975
-63.3085
-63.3189
-63.3286
-63.3377
-63.3462
-63.3541
-63.3613
-63.3679
-63.3739
-63.3794
-63.3844
-63.3889
-63.393
-63.3968
-63.4
-63.4029
-63.4053
-63.4075
-63.4093
-63.4106
-63.4114
-47.9769
-48.0483
-48.1649
-48.3269
-48.5308
-48.7704
-49.0379
-49.3265
-49.6308
-49.9461
-50.268
-50.5923
-50.9162
-51.2381
-51.556
-51.8687
-52.1754
-52.4754
-52.7682
-53.0537
-53.332
-53.6029
-53.8666
-54.1234
-54.3734
-54.617
-54.8545
-55.086
-55.3119
-55.5324
-55.7477
-55.9579
-56.1631
-56.3633
-56.5589
-56.7496
-56.9356
-57.1171
-57.2942
-57.4667
-57.6348
-57.7988
-57.9587
-58.1145
-58.2664
-58.4146
-58.5594
-58.7008
-58.8389
-58.9741
-59.1067
-59.2367
-59.3641
-59.4893
-59.6125
-59.7336
-59.8526
-59.9697
-60.0851
-60.1988
-60.311
-60.4215
-60.5307
-60.6388
-60.7456
-60.8512
-60.9556
-61.0589
-61.1611
-61.2621
-61.3616
-61.4598
-61.5567
-61.6523
-61.7463
-61.8389
-61.9301
-62.0201
-62.1086
-62.1957
-62.2814
-62.3657
-62.4487
-62.5304
-62.6107
-62.6896
-62.7672
-62.8437
-62.919
-62.993
-63.0657
-63.1373
-63.2077
-63.277
-63.3451
-63.412
-63.4777
-63.5424
-63.6061
-63.6686
-63.73
-63.7902
-63.8493
-63.9074
-63.9644
-64.0203
-64.0752
-64.1291
-64.1823
-64.2346
-64.2861
-64.3367
-64.3866
-64.4357
-64.4842
-64.5319
-64.5789
-64.6251
-64.6707
-64.7157
-64.76
-64.8036
-64.8465
-64.8887
-64.9303
-64.9714
-65.012
-65.0519
-65.0912
-65.1297
-65.1677
-65.205
-65.2417
-65.2775
-65.3125
-65.3468
-65.3804
-65.4132
-65.4453
-65.4766
-65.507
-65.5367
-65.5658
-65.5943
-65.6222
-65.6494
-65.6759
-65.7017
-65.7269
-65.7516
-65.7756
-65.7991
-65.8219
-65.8441
-65.8658
-65.887
-65.9078
-65.9281
-65.948
-65.9674
-65.9863
-66.005
-66.0233
-66.0413
-66.0589
-66.076
-66.0927
-66.109
-66.1249
-66.1404
-66.1556
-66.1702
-66.1843
-66.198
-66.2112
-66.2241
-66.2365
-66.2484
-66.2599
-66.2707
-66.281
-66.2907
-66.2998
-66.3083
-66.3161
-66.3233
-66.3299
-66.336
-66.3416
-66.3467
-66.3514
-66.3556
-66.3593
-66.3626
-66.3655
-66.3681
-66.3702
-66.372
-66.3733
-66.3741
-51.559
-51.6203
-51.7203
-51.8594
-52.0347
-52.2424
-52.4772
-52.7327
-53.004
-53.2874
-53.5789
-53.8752
-54.1736
-54.4716
-54.7677
-55.0606
-55.3493
-55.6329
-55.9109
-56.1829
-56.4488
-56.7085
-56.9621
-57.2095
-57.4511
-57.687
-57.9174
-58.1425
-58.3625
-58.5777
-58.788
-58.9936
-59.1947
-59.3912
-59.5831
-59.7705
-59.9535
-60.1322
-60.3065
-60.4764
-60.6423
-60.8041
-60.9619
-61.1157
-61.2658
-61.4124
-61.5556
-61.6954
-61.8322
-61.9662
-62.0976
-62.2263
-62.3527
-62.477
-62.5992
-62.7194
-62.8375
-62.9538
-63.0685
-63.1815
-63.2929
-63.4029
-63.5116
-63.6191
-63.7254
-63.8304
-63.9344
-64.0373
-64.139
-64.2395
-64.3385
-64.4363
-64.5328
-64.6279
-64.7215
-64.8137
-64.9045
-64.9941
-65.0822
-65.1689
-65.2542
-65.3382
-65.4208
-65.5021
-65.582
-65.6606
-65.738
-65.8142
-65.8891
-65.9628
-66.0352
-66.1065
-66.1767
-66.2457
-66.3135
-66.38
-66.4456
-66.5101
-66.5735
-66.6358
-66.6969
-66.757
-66.816
-66.8739
-66.9307
-66.9864
-67.0412
-67.0951
-67.1482
-67.2004
-67.2518
-67.3024
-67.3522
-67.4013
-67.4498
-67.4975
-67.5444
-67.5906
-67.6362
-67.6812
-67.7255
-67.769
-67.8118
-67.854
-67.8956
-67.9367
-67.9772
-68.017
-68.0561
-68.0946
-68.1325
-68.1697
-68.2062
-68.2419
-68.2768
-68.311
-68.3444
-68.3771
-68.4091
-68.4402
-68.4706
-68.5002
-68.5293
-68.5577
-68.5856
-68.6127
-68.6392
-68.6651
-68.6904
-68.7151
-68.7393
-68.7628
-68.7857
-68.808
-68.8298
-68.8512
-68.8721
-68.8925
-68.9124
-68.9319
-68.951
-68.9697
-68.988
-69.006
-69.0235
-69.0406
-69.0572
-69.0733
-69.0891
-69.1045
-69.1194
-69.1339
-69.1478
-69.1613
-69.1744
-69.187
-69.1993
-69.2111
-69.2224
-69.2331
-69.2433
-69.253
-69.2621
-69.2706
-69.2785
-69.2858
-69.2925
-69.2987
-69.3044
-69.3097
-69.3145
-69.3189
-69.3227
-69.3261
-69.3291
-69.3316
-69.3338
-69.3356
-69.3368
-69.3375
-55.0951
-55.1473
-55.234
-55.3551
-55.5079
-55.6894
-55.8958
-56.123
-56.3663
-56.6216
-56.886
-57.1569
-57.4314
-57.7073
-57.9829
-58.257
-58.5283
-58.7959
-59.0593
-59.318
-59.5717
-59.8201
-60.0634
-60.3014
-60.5344
-60.7624
-60.9855
-61.204
-61.418
-61.6276
-61.8328
-62.0337
-62.2305
-62.4229
-62.6111
-62.795
-62.9748
-63.1504
-63.3218
-63.4892
-63.6526
-63.8121
-63.9676
-64.1194
-64.2676
-64.4125
-64.5539
-64.6922
-64.8276
-64.9603
-65.0903
-65.2179
-65.3432
-65.4665
-65.5878
-65.7069
-65.8242
-65.9398
-66.0538
-66.1661
-66.2768
-66.3862
-66.4944
-66.6013
-66.7071
-66.8116
-66.9152
-67.0177
-67.1189
-67.2189
-67.3175
-67.4149
-67.511
-67.6056
-67.6987
-67.7905
-67.881
-67.9701
-68.0577
-68.144
-68.2289
-68.3125
-68.3948
-68.4756
-68.555
-68.6333
-68.7103
-68.7861
-68.8606
-68.9339
-69.006
-69.077
-69.1468
-69.2154
-69.2828
-69.3491
-69.4144
-69.4786
-69.5418
-69.6038
-69.6646
-69.7245
-69.7833
-69.8411
-69.8977
-69.9532
-70.0079
-70.0617
-70.1148
-70.1669
-70.2182
-70.2687
-70.3186
-70.3677
-70.4161
-70.4638
-70.5106
-70.5569
-70.6025
-70.6474
-70.6917
-70.7351
-70.7779
-70.82
-70.8616
-70.9026
-70.9429
-70.9825
-71.0215
-71.0599
-71.0977
-71.1347
-71.171
-71.2065
-71.2412
-71.2752
-71.3085
-71.3411
-71.3729
-71.4039
-71.4341
-71.4637
-71.4928
-71.5212
-71.549
-71.5762
-71.6028
-71.6287
-71.6541
-71.679
-71.7032
-71.7269
-71.7499
-71.7724
-71.7944
-71.8159
-71.8369
-71.8574
-71.8774
-71.8969
-71.916
-71.9348
-71.9532
-71.9711
-71.9885
-72.0054
-72.0218
-72.0379
-72.0535
-72.0687
-72.0834
-72.0975
-72.1112
-72.1245
-72.1374
-72.1499
-72.162
-72.1736
-72.1848
-72.1955
-72.2057
-72.2154
-72.2245
-72.2331
-72.2411
-72.2485
-72.2553
-72.2616
-72.2675
-72.273
-72.2781
-72.2826
-72.2866
-72.29
-72.2931
-72.2957
-72.2979
-72.2996
-72.3007
-72.3013
-58.5924
-58.6367
-58.7114
-58.8177
-58.9525
-59.1124
-59.2951
-59.4977
-59.7162
-59.9471
-60.1877
-60.4355
-60.6881
-60.9435
-61.2001
-61.4562
-61.7108
-61.9632
-62.2124
-62.4579
-62.6995
-62.9369
-63.1698
-63.3984
-63.6227
-63.8427
-64.0585
-64.2703
-64.4782
-64.682
-64.882
-65.0781
-65.2704
-65.4585
-65.6428
-65.8232
-65.9996
-66.1719
-66.3404
-66.505
-66.6658
-66.8227
-66.9759
-67.1256
-67.2719
-67.4148
-67.5545
-67.6912
-67.8251
-67.9564
-68.085
-68.2114
-68.3357
-68.4579
-68.5781
-68.6963
-68.8128
-68.9276
-69.0407
-69.1522
-69.2624
-69.3713
-69.4789
-69.5853
-69.6905
-69.7947
-69.8978
-69.9998
-70.1005
-70.2
-70.2983
-70.3953
-70.4908
-70.5849
-70.6776
-70.769
-70.859
-70.9476
-71.0348
-71.1206
-71.2051
-71.2882
-71.37
-71.4503
-71.5293
-71.6071
-71.6837
-71.7591
-71.8331
-71.9059
-71.9777
-72.0483
-72.1177
-72.1859
-72.2529
-72.3189
-72.3838
-72.4477
-72.5105
-72.5722
-72.6329
-72.6925
-72.7511
-72.8086
-72.865
-72.9205
-72.975
-73.0288
-73.0818
-73.1338
-73.1851
-73.2356
-73.2855
-73.3346
-73.3829
-73.4305
-73.4774
-73.5237
-73.5693
-73.6142
-73.6583
-73.7017
-73.7443
-73.7864
-73.8279
-73.8687
-73.9088
-73.9483
-73.9871
-74.0253
-74.0629
-74.0997
-74.1357
-74.171
-74.2055
-74.2393
-74.2725
-74.3049
-74.3365
-74.3673
-74.3975
-74.4271
-74.4561
-74.4846
-74.5124
-74.5396
-74.5662
-74.5923
-74.6179
-74.6429
-74.6673
-74.691
-74.7142
-74.7368
-74.759
-74.7807
-74.8018
-74.8224
-74.8424
-74.862
-74.8811
-74.8999
-74.9182
-74.936
-74.9533
-74.97
-74.9863
-75.0021
-75.0175
-75.0325
-75.0469
-75.0608
-75.0743
-75.0873
-75.1
-75.1124
-75.1243
-75.1358
-75.1469
-75.1575
-75.1678
-75.1776
-75.1868
-75.1955
-75.2036
-75.2111
-75.2181
-75.2247
-75.2308
-75.2365
-75.2417
-75.2464
-75.2505
-75.2541
-75.2572
-75.2598
-75.262
-75.2635
-75.2645
-75.265
-62.055
-62.0932
-62.158
-62.2512
-62.3704
-62.5129
-62.6759
-62.857
-63.0538
-63.2633
-63.4827
-63.7097
-63.9423
-64.1789
-64.4175
-64.6568
-64.8957
-65.1334
-65.3689
-65.6017
-65.8315
-66.0579
-66.2807
-66.5
-66.7156
-66.9277
-67.1362
-67.3413
-67.5428
-67.7408
-67.9355
-68.1267
-68.3142
-68.4981
-68.6784
-68.855
-69.0278
-69.1969
-69.3623
-69.524
-69.6819
-69.8362
-69.9871
-70.1346
-70.2787
-70.4196
-70.5574
-70.6925
-70.8248
-70.9545
-71.0818
-71.2069
-71.33
-71.451
-71.5701
-71.6873
-71.803
-71.9169
-72.0292
-72.14
-72.2495
-72.3578
-72.4648
-72.5706
-72.6754
-72.7791
-72.8818
-72.9833
-73.0835
-73.1826
-73.2804
-73.3769
-73.4719
-73.5655
-73.6577
-73.7487
-73.8382
-73.9263
-74.0129
-74.0982
-74.1823
-74.2649
-74.3461
-74.4259
-74.5045
-74.5818
-74.6579
-74.7327
-74.8062
-74.8786
-74.9499
-75.0201
-75.089
-75.1567
-75.2233
-75.2889
-75.3535
-75.4171
-75.4795
-75.5409
-75.6013
-75.6607
-75.7191
-75.7763
-75.8325
-75.8879
-75.9424
-75.9961
-76.0489
-76.1009
-76.1522
-76.2027
-76.2526
-76.3017
-76.35
-76.3976
-76.4445
-76.4907
-76.5363
-76.5811
-76.6251
-76.6684
-76.711
-76.753
-76.7943
-76.8349
-76.8748
-76.9141
-76.9527
-76.9907
-77.028
-77.0645
-77.1003
-77.1353
-77.1696
-77.2033
-77.2362
-77.2684
-77.2998
-77.3306
-77.3607
-77.3903
-77.4193
-77.4477
-77.4756
-77.5028
-77.5296
-77.5558
-77.5815
-77.6067
-77.6312
-77.655
-77.6784
-77.7012
-77.7235
-77.7453
-77.7665
-77.7871
-77.8072
-77.8268
-77.8459
-77.8646
-77.8828
-77.9004
-77.9175
-77.9341
-77.9502
-77.9658
-77.981
-77.9956
-78.0098
-78.0235
-78.0367
-78.0496
-78.0622
-78.0744
-78.0862
-78.0976
-78.1087
-78.1193
-78.1296
-78.1395
-78.1489
-78.1577
-78.1659
-78.1736
-78.1808
-78.1875
-78.1939
-78.1998
-78.2051
-78.2099
-78.2141
-78.2178
-78.221
-78.2236
-78.2257
-78.2272
-78.228
-78.2283
-65.4857
-65.52
-65.5772
-65.6589
-65.7647
-65.8922
-66.0384
-66.2013
-66.3791
-66.5696
-66.77
-66.9784
-67.193
-67.4121
-67.634
-67.8577
-68.0818
-68.3054
-68.5278
-68.7484
-68.9668
-69.1825
-69.3955
-69.6056
-69.8127
-70.0168
-70.2181
-70.4164
-70.6116
-70.8039
-70.9932
-71.1793
-71.3621
-71.5416
-71.7178
-71.8905
-72.0597
-72.2253
-72.3876
-72.5462
-72.7012
-72.8528
-73.0012
-73.1463
-73.2881
-73.4269
-73.5629
-73.6961
-73.8267
-73.9547
-74.0806
-74.2044
-74.3262
-74.4459
-74.5638
-74.68
-74.7947
-74.9076
-75.019
-75.1291
-75.238
-75.3456
-75.452
-75.5572
-75.6615
-75.7647
-75.8668
-75.9677
-76.0675
-76.1661
-76.2635
-76.3594
-76.4538
-76.5469
-76.6388
-76.7292
-76.8181
-76.9056
-76.9918
-77.0766
-77.1601
-77.2422