/*--------------------------------*- C++ -*----------------------------------*\
| =========                 |                                                 |
| \\      /  F ield         | OpenFOAM: The Open Source CFD Toolbox           |
|  \\    /   O peration     | Version:  3.0.1                                 |
|   \\  /    A nd           | Web:      www.OpenFOAM.org                      |
|    \\/     M anipulation  |                                                 |
\*---------------------------------------------------------------------------*/
FoamFile
{
    version     2.0;
    format      ascii;
    class       volScalarField;
    location    "1";
    object      p_rgh;
}
// * * * * * * * * * * * * * * * * * * * * * * * * * * * * * * * * * * * * * //

dimensions      [1 -1 -2 0 0 0 0];

internalField   nonuniform List<scalar> 
80000
(
1.47749
-0.392898
-2.97359
-5.302
-7.07952
-8.52889
-9.7519
-10.8079
-11.7363
-12.5643
-13.3105
-13.9884
-14.6095
-15.1833
-15.7171
-16.2153
-16.6808
-17.1174
-17.5293
-17.9198
-18.2912
-18.6443
-18.9801
-19.3007
-19.6079
-19.903
-20.187
-20.4606
-20.7237
-20.9774
-21.223
-21.4608
-21.691
-21.9144
-22.1312
-22.3414
-22.5452
-22.7436
-22.9366
-23.124
-23.3062
-23.4837
-23.6564
-23.8245
-23.9881
-24.1477
-24.3033
-24.455
-24.6032
-24.7483
-24.8902
-25.029
-25.1651
-25.2989
-25.4304
-25.5594
-25.6863
-25.8114
-25.9344
-26.0554
-26.1746
-26.2921
-26.4081
-26.5223
-26.6351
-26.7465
-26.8566
-26.9653
-27.0725
-27.1783
-27.2828
-27.3857
-27.487
-27.5867
-27.6848
-27.7814
-27.8762
-27.9693
-28.0608
-28.1508
-28.2392
-28.3259
-28.4109
-28.4946
-28.5767
-28.6574
-28.7364
-28.8141
-28.8905
-28.9656
-29.0393
-29.1117
-29.1828
-29.2528
-29.3215
-29.3891
-29.4554
-29.5207
-29.5848
-29.6479
-29.7099
-29.7707
-29.8305
-29.8893
-29.947
-30.0036
-30.0591
-30.1137
-30.1674
-30.2202
-30.2721
-30.3231
-30.3733
-30.4227
-30.4713
-30.5192
-30.5662
-30.6123
-30.6577
-30.7024
-30.7463
-30.7894
-30.8316
-30.8732
-30.914
-30.9541
-30.9936
-31.0324
-31.0705
-31.108
-31.1449
-31.1813
-31.2169
-31.2519
-31.2862
-31.3199
-31.3531
-31.3856
-31.4176
-31.4489
-31.4796
-31.5098
-31.5396
-31.5687
-31.5974
-31.6255
-31.6531
-31.6802
-31.7068
-31.7328
-31.7583
-31.783
-31.8072
-31.8308
-31.8538
-31.8762
-31.8979
-31.919
-31.9395
-31.9595
-31.9789
-31.9977
-32.016
-32.0337
-32.0508
-32.0674
-32.0834
-32.0989
-32.114
-32.1285
-32.1424
-32.1559
-32.169
-32.1817
-32.194
-32.2058
-32.2172
-32.2282
-32.2389
-32.2492
-32.2592
-32.2687
-32.2778
-32.2865
-32.2947
-32.3024
-32.3098
-32.3167
-32.3232
-32.3292
-32.3347
-32.3397
-32.3443
-32.3484
-32.3518
-32.3544
-32.3563
-32.3583
-32.361
-32.3636
-0.39204
-2.06472
-4.07195
-5.92525
-7.48778
-8.81727
-9.9656
-10.9714
-11.8645
-12.667
-13.395
-14.06
-14.6708
-15.2357
-15.7617
-16.2538
-16.7156
-17.1493
-17.5581
-17.9454
-18.3139
-18.6647
-18.9995
-19.3192
-19.625
-19.9186
-20.2016
-20.4739
-20.7364
-20.9899
-21.235
-21.472
-21.7017
-21.9247
-22.1409
-22.3509
-22.5546
-22.7527
-22.9452
-23.1324
-23.3144
-23.4916
-23.664
-23.8317
-23.9952
-24.1546
-24.3099
-24.4612
-24.6093
-24.754
-24.8956
-25.0342
-25.1701
-25.3036
-25.4348
-25.5636
-25.6904
-25.8152
-25.9379
-26.0587
-26.1776
-26.2948
-26.4106
-26.5247
-26.6372
-26.7484
-26.8584
-26.9668
-27.0738
-27.1795
-27.2839
-27.3866
-27.4877
-27.5873
-27.6853
-27.7817
-27.8763
-27.9692
-28.0607
-28.1506
-28.2388
-28.3253
-28.4103
-28.4939
-28.5759
-28.6564
-28.7355
-28.8131
-28.8895
-28.9644
-29.0381
-29.1104
-29.1815
-29.2515
-29.3202
-29.3877
-29.454
-29.5193
-29.5835
-29.6466
-29.7085
-29.7693
-29.8291
-29.8879
-29.9456
-30.0022
-30.0577
-30.1123
-30.166
-30.2188
-30.2707
-30.3218
-30.372
-30.4214
-30.4701
-30.518
-30.565
-30.6112
-30.6567
-30.7014
-30.7454
-30.7885
-30.8309
-30.8725
-30.9134
-30.9536
-30.9932
-31.032
-31.0702
-31.1078
-31.1449
-31.1813
-31.2171
-31.2521
-31.2865
-31.3204
-31.3536
-31.3862
-31.4182
-31.4496
-31.4804
-31.5107
-31.5404
-31.5696
-31.5983
-31.6264
-31.654
-31.6811
-31.7077
-31.7337
-31.7591
-31.7838
-31.808
-31.8315
-31.8545
-31.8768
-31.8985
-31.9195
-31.94
-31.9599
-31.9793
-31.9981
-32.0163
-32.034
-32.0511
-32.0676
-32.0837
-32.0992
-32.1142
-32.1287
-32.1427
-32.1562
-32.1694
-32.1821
-32.1944
-32.2062
-32.2176
-32.2287
-32.2394
-32.2497
-32.2597
-32.2693
-32.2784
-32.287
-32.2951
-32.3029
-32.3102
-32.3171
-32.3235
-32.3294
-32.3348
-32.3398
-32.3443
-32.3484
-32.352
-32.3548
-32.3564
-32.3574
-32.359
-32.361
-2.97156
-4.07078
-5.40904
-6.79639
-8.08952
-9.2543
-10.2952
-11.2283
-12.0696
-12.8335
-13.5326
-14.1761
-14.7707
-15.3223
-15.8365
-16.319
-16.7733
-17.2014
-17.6057
-17.9885
-18.3525
-18.6999
-19.032
-19.3493
-19.6534
-19.9453
-20.226
-20.4968
-20.7582
-21.0107
-21.2546
-21.4909
-21.7198
-21.9419
-22.1574
-22.3667
-22.57
-22.7676
-22.9596
-23.1462
-23.3278
-23.5046
-23.6765
-23.8437
-24.0068
-24.1657
-24.3205
-24.4715
-24.6192
-24.7634
-24.9045
-25.0427
-25.1784
-25.3115
-25.4422
-25.5706
-25.697
-25.8214
-25.9437
-26.064
-26.1827
-26.2997
-26.4149
-26.5284
-26.6408
-26.7517
-26.8613
-26.9694
-27.0762
-27.1816
-27.2857
-27.3881
-27.489
-27.5883
-27.6862
-27.7823
-27.8766
-27.9694
-28.0607
-28.1504
-28.2384
-28.3249
-28.4098
-28.4932
-28.5752
-28.6555
-28.7344
-28.812
-28.8884
-28.9633
-29.0368
-29.1091
-29.1802
-29.2501
-29.3188
-29.3863
-29.4526
-29.5178
-29.5821
-29.6451
-29.707
-29.7679
-29.8277
-29.8865
-29.9442
-30.0007
-30.0562
-30.1108
-30.1646
-30.2174
-30.2692
-30.3203
-30.3705
-30.42
-30.4688
-30.5166
-30.5637
-30.6099
-30.6555
-30.7003
-30.7443
-30.7875
-30.8299
-30.8716
-30.9126
-30.953
-30.9926
-31.0315
-31.0699
-31.1077
-31.1449
-31.1814
-31.2173
-31.2524
-31.287
-31.3209
-31.3543
-31.387
-31.419
-31.4504
-31.4813
-31.5116
-31.5414
-31.5706
-31.5992
-31.6273
-31.6549
-31.682
-31.7085
-31.7344
-31.7597
-31.7843
-31.8084
-31.8318
-31.8547
-31.8769
-31.8985
-31.9194
-31.9398
-31.9596
-31.9789
-31.9977
-32.0159
-32.0335
-32.0506
-32.0672
-32.0833
-32.0989
-32.1139
-32.1285
-32.1425
-32.1561
-32.1694
-32.1822
-32.1946
-32.2065
-32.218
-32.2292
-32.24
-32.2504
-32.2604
-32.27
-32.2791
-32.2877
-32.2959
-32.3036
-32.3108
-32.3177
-32.324
-32.3298
-32.3351
-32.34
-32.3443
-32.3483
-32.352
-32.3551
-32.357
-32.3577
-32.3582
-32.3592
-5.29856
-5.92267
-6.79496
-7.80404
-8.83154
-9.81322
-10.7277
-11.5713
-12.3477
-13.0627
-13.7236
-14.3374
-14.9095
-15.4433
-15.9429
-16.4124
-16.8555
-17.275
-17.6725
-18.0496
-18.4083
-18.7508
-19.0784
-19.3924
-19.6937
-19.9831
-20.2615
-20.53
-20.7892
-21.0401
-21.2827
-21.5176
-21.7453
-21.9664
-22.1809
-22.3892
-22.5917
-22.7885
-22.9797
-23.1656
-23.3466
-23.5226
-23.6938
-23.8605
-24.0231
-24.1813
-24.3354
-24.4858
-24.6329
-24.7766
-24.917
-25.0547
-25.1898
-25.3224
-25.4524
-25.5804
-25.7063
-25.8301
-25.9517
-26.0716
-26.1898
-26.3062
-26.4209
-26.5341
-26.6459
-26.7565
-26.8655
-26.9732
-27.0797
-27.1848
-27.2884
-27.3905
-27.491
-27.5901
-27.6876
-27.7834
-27.8775
-27.9701
-28.0611
-28.1506
-28.2384
-28.3247
-28.4095
-28.4929
-28.5746
-28.6549
-28.7337
-28.8113
-28.8875
-28.9624
-29.0358
-29.1081
-29.1793
-29.2492
-29.3178
-29.3852
-29.4516
-29.5169
-29.5811
-29.6441
-29.706
-29.7668
-29.8267
-29.8855
-29.9431
-29.9996
-30.0551
-30.1097
-30.1634
-30.2162
-30.268
-30.319
-30.3693
-30.4189
-30.4676
-30.5154
-30.5625
-30.6088
-30.6544
-30.6993
-30.7433
-30.7865
-30.829
-30.8708
-30.912
-30.9524
-30.9921
-31.0312
-31.0697
-31.1077
-31.145
-31.1817
-31.2176
-31.2529
-31.2876
-31.3217
-31.3551
-31.3879
-31.42
-31.4514
-31.4824
-31.5127
-31.5424
-31.5716
-31.6001
-31.6282
-31.6557
-31.6827
-31.7091
-31.7349
-31.76
-31.7844
-31.8083
-31.8316
-31.8543
-31.8763
-31.8978
-31.9185
-31.9388
-31.9586
-31.9778
-31.9965
-32.0146
-32.0322
-32.0494
-32.066
-32.0822
-32.0978
-32.113
-32.1276
-32.1419
-32.1557
-32.1691
-32.1821
-32.1946
-32.2067
-32.2184
-32.2297
-32.2407
-32.2513
-32.2614
-32.2711
-32.2802
-32.2888
-32.2969
-32.3046
-32.3118
-32.3186
-32.3248
-32.3305
-32.3357
-32.3405
-32.3447
-32.3485
-32.3518
-32.3549
-32.3574
-32.3585
-32.3587
-32.3589
-7.0746
-7.48369
-8.08652
-8.82995
-9.63535
-10.4469
-11.2332
-11.9808
-12.6849
-13.3448
-13.9621
-14.5406
-15.0841
-15.5957
-16.0778
-16.5321
-16.962
-17.3701
-17.7582
-18.1278
-18.4803
-18.8168
-19.139
-19.4484
-19.7457
-20.0317
-20.3072
-20.573
-20.8298
-21.0782
-21.3188
-21.5521
-21.7783
-21.9978
-22.211
-22.4182
-22.6196
-22.8152
-23.0054
-23.1905
-23.3706
-23.5456
-23.716
-23.882
-24.0437
-24.2009
-24.3544
-24.5042
-24.6504
-24.7932
-24.933
-25.0701
-25.2045
-25.3362
-25.4656
-25.593
-25.7182
-25.8412
-25.9623
-26.0816
-26.1991
-26.3148
-26.4288
-26.5415
-26.6528
-26.7627
-26.8712
-26.9785
-27.0845
-27.1892
-27.2923
-27.3939
-27.4942
-27.5929
-27.6899
-27.7853
-27.8792
-27.9716
-28.0624
-28.1515
-28.2391
-28.3252
-28.41
-28.4931
-28.5747
-28.6548
-28.7337
-28.8112
-28.8873
-28.962
-29.0355
-29.1078
-29.179
-29.2488
-29.3174
-29.3849
-29.4513
-29.5165
-29.5807
-29.6437
-29.7056
-29.7665
-29.8263
-29.8851
-29.9426
-29.9991
-30.0546
-30.1092
-30.1628
-30.2155
-30.2673
-30.3184
-30.3686
-30.4182
-30.4668
-30.5146
-30.5617
-30.6081
-30.6538
-30.6986
-30.7427
-30.786
-30.8286
-30.8705
-30.9117
-30.9523
-30.9921
-31.0313
-31.07
-31.1081
-31.1456
-31.1824
-31.2185
-31.2539
-31.2888
-31.323
-31.3565
-31.3893
-31.4214
-31.453
-31.4839
-31.5142
-31.5439
-31.573
-31.6014
-31.6293
-31.6568
-31.6836
-31.7098
-31.7354
-31.7603
-31.7845
-31.8082
-31.8313
-31.8538
-31.8757
-31.8969
-31.9175
-31.9377
-31.9573
-31.9765
-31.9951
-32.0132
-32.0308
-32.0479
-32.0647
-32.0809
-32.0967
-32.112
-32.1268
-32.1412
-32.1553
-32.1689
-32.1821
-32.1949
-32.2072
-32.2191
-32.2306
-32.2418
-32.2526
-32.2628
-32.2726
-32.2817
-32.2903
-32.2985
-32.3062
-32.3133
-32.3199
-32.326
-32.3315
-32.3366
-32.3412
-32.3455
-32.3492
-32.3522
-32.3548
-32.3572
-32.3589
-32.3595
-32.3596
-8.52265
-8.81181
-9.24987
-9.81009
-10.4454
-11.1127
-11.782
-12.4361
-13.0661
-13.6676
-14.2388
-14.7794
-15.2914
-15.7771
-16.2378
-16.675
-17.0905
-17.4855
-17.8623
-18.2225
-18.567
-18.8967
-19.213
-19.5168
-19.8091
-20.0908
-20.3626
-20.6252
-20.879
-21.1247
-21.3629
-21.5939
-21.8182
-22.0359
-22.2475
-22.4532
-22.6531
-22.8473
-23.0364
-23.2204
-23.3992
-23.5731
-23.7427
-23.9077
-24.0682
-24.2246
-24.3772
-24.5261
-24.6713
-24.8133
-24.9523
-25.0885
-25.222
-25.3529
-25.4816
-25.6082
-25.7326
-25.8548
-25.9752
-26.0938
-26.2105
-26.3254
-26.4388
-26.5509
-26.6616
-26.7708
-26.8787
-26.9855
-27.091
-27.195
-27.2976
-27.3988
-27.4987
-27.5969
-27.6935
-27.7885
-27.8821
-27.9742
-28.0646
-28.1535
-28.2409
-28.3269
-28.4114
-28.4944
-28.5758
-28.6559
-28.7347
-28.8121
-28.8881
-28.9628
-29.0363
-29.1086
-29.1797
-29.2495
-29.3181
-29.3855
-29.452
-29.5172
-29.5813
-29.6443
-29.7062
-29.7671
-29.8269
-29.8856
-29.9431
-29.9995
-30.055
-30.1096
-30.1631
-30.2157
-30.2675
-30.3186
-30.3688
-30.4183
-30.4669
-30.5147
-30.5618
-30.6082
-30.6539
-30.6987
-30.7428
-30.7862
-30.8289
-30.8709
-30.9123
-30.9529
-30.9929
-31.0323
-31.0711
-31.1094
-31.147
-31.1839
-31.2202
-31.2558
-31.2908
-31.3251
-31.3586
-31.3915
-31.4237
-31.4552
-31.4862
-31.5165
-31.5461
-31.575
-31.6034
-31.6312
-31.6584
-31.6851
-31.7111
-31.7364
-31.7611
-31.7851
-31.8086
-31.8315
-31.8538
-31.8753
-31.8964
-31.9169
-31.9369
-31.9564
-31.9755
-31.994
-32.0121
-32.0297
-32.047
-32.0638
-32.0802
-32.0961
-32.1115
-32.1266
-32.1412
-32.1555
-32.1694
-32.1828
-32.1958
-32.2083
-32.2205
-32.2323
-32.2436
-32.2545
-32.2649
-32.2747
-32.2839
-32.2926
-32.3007
-32.3083
-32.3153
-32.3218
-32.3278
-32.3331
-32.338
-32.3424
-32.3466
-32.3504
-32.3534
-32.3557
-32.3577
-32.3594
-32.3604
-32.3608
-9.74481
-9.9592
-10.2898
-10.7234
-11.2304
-11.7809
-12.3495
-12.9186
-13.4776
-14.0208
-14.5445
-15.0463
-15.5259
-15.9836
-16.4209
-16.8388
-17.2378
-17.619
-17.9837
-18.3329
-18.6679
-18.9898
-19.2991
-19.5967
-19.8833
-20.1601
-20.4274
-20.686
-20.9363
-21.1789
-21.4142
-21.6427
-21.8645
-22.0801
-22.2898
-22.4937
-22.6918
-22.8846
-23.0723
-23.2547
-23.4322
-23.605
-23.7733
-23.937
-24.0964
-24.2518
-24.4034
-24.5511
-24.6953
-24.8364
-24.9746
-25.1097
-25.2422
-25.3724
-25.5003
-25.6259
-25.7494
-25.8708
-25.9905
-26.1082
-26.224
-26.3382
-26.451
-26.5623
-26.6722
-26.7808
-26.8882
-26.9944
-27.0992
-27.2027
-27.3048
-27.4056
-27.5049
-27.6026
-27.6988
-27.7935
-27.8867
-27.9784
-28.0685
-28.1571
-28.2444
-28.3302
-28.4144
-28.4971
-28.5784
-28.6585
-28.7372
-28.8144
-28.8904
-28.965
-29.0385
-29.1108
-29.1818
-29.2516
-29.3202
-29.3877
-29.4541
-29.5193
-29.5833
-29.6463
-29.7083
-29.7692
-29.8289
-29.8874
-29.9449
-30.0013
-30.0568
-30.1112
-30.1647
-30.2172
-30.269
-30.32
-30.3702
-30.4196
-30.4681
-30.5159
-30.5631
-30.6095
-30.6552
-30.7
-30.7441
-30.7876
-30.8304
-30.8725
-30.9139
-30.9546
-30.9948
-31.0343
-31.0734
-31.1118
-31.1495
-31.1866
-31.223
-31.2587
-31.2938
-31.3282
-31.3618
-31.3947
-31.427
-31.4585
-31.4895
-31.5197
-31.5492
-31.578
-31.6062
-31.6339
-31.661
-31.6875
-31.7133
-31.7383
-31.7628
-31.7866
-31.8099
-31.8326
-31.8546
-31.876
-31.8968
-31.9172
-31.9371
-31.9566
-31.9755
-31.994
-32.0121
-32.0298
-32.0471
-32.064
-32.0805
-32.0966
-32.1122
-32.1274
-32.1423
-32.1568
-32.1709
-32.1846
-32.1977
-32.2105
-32.2228
-32.2348
-32.2463
-32.2574
-32.2678
-32.2777
-32.2869
-32.2955
-32.3036
-32.3112
-32.3181
-32.3244
-32.3302
-32.3355
-32.3402
-32.3444
-32.3484
-32.352
-32.3551
-32.3575
-32.3594
-32.3609
-32.3621
-32.3627
-10.8007
-10.9646
-11.2225
-11.5667
-11.9775
-12.4342
-12.918
-13.4128
-13.9075
-14.3953
-14.872
-15.3348
-15.7814
-16.2111
-16.6242
-17.0211
-17.4023
-17.7684
-18.1199
-18.4575
-18.7823
-19.0951
-19.3964
-19.687
-19.9676
-20.2386
-20.5009
-20.7549
-21.0013
-21.2402
-21.4723
-21.6977
-21.9169
-22.1301
-22.3375
-22.5391
-22.7354
-22.9265
-23.1123
-23.2931
-23.4691
-23.6406
-23.8074
-23.9698
-24.128
-24.2822
-24.4325
-24.579
-24.7223
-24.8623
-24.9994
-25.1335
-25.2651
-25.3944
-25.5213
-25.646
-25.7685
-25.8892
-26.008
-26.1247
-26.2397
-26.3532
-26.4653
-26.5759
-26.685
-26.793
-26.8998
-27.0054
-27.1096
-27.2125
-27.3141
-27.4144
-27.5132
-27.6104
-27.7061
-27.8005
-27.8933
-27.9846
-28.0744
-28.1628
-28.2498
-28.3353
-28.4193
-28.5018
-28.5831
-28.663
-28.7415
-28.8187
-28.8945
-28.9691
-29.0426
-29.1148
-29.1858
-29.2555
-29.3241
-29.3916
-29.4579
-29.5231
-29.5871
-29.65
-29.712
-29.7728
-29.8324
-29.8909
-29.9483
-30.0047
-30.06
-30.1144
-30.1677
-30.2203
-30.272
-30.323
-30.3731
-30.4224
-30.4709
-30.5187
-30.5659
-30.6123
-30.6579
-30.7028
-30.7469
-30.7905
-30.8334
-30.8755
-30.917
-30.9578
-30.9981
-31.0378
-31.077
-31.1156
-31.1534
-31.1906
-31.2271
-31.263
-31.2981
-31.3326
-31.3662
-31.3992
-31.4314
-31.463
-31.4939
-31.524
-31.5534
-31.5821
-31.6102
-31.6378
-31.6647
-31.691
-31.7165
-31.7414
-31.7657
-31.7894
-31.8124
-31.8349
-31.8567
-31.8779
-31.8987
-31.9189
-31.9387
-31.9581
-31.977
-31.9955
-32.0136
-32.0314
-32.0488
-32.0658
-32.0824
-32.0986
-32.1143
-32.1297
-32.1448
-32.1595
-32.1738
-32.1876
-32.2009
-32.2138
-32.2263
-32.2384
-32.2501
-32.2612
-32.2717
-32.2815
-32.2908
-32.2994
-32.3074
-32.3149
-32.3217
-32.3279
-32.3335
-32.3386
-32.3433
-32.3475
-32.3512
-32.3545
-32.3576
-32.3601
-32.3621
-32.3636
-32.3647
-32.3655
-11.7299
-11.8584
-12.0642
-12.3434
-12.6819
-13.0644
-13.477
-13.9076
-14.3453
-14.7827
-15.2151
-15.6394
-16.0534
-16.4553
-16.8439
-17.2194
-17.582
-17.932
-18.2694
-18.5948
-18.9087
-19.2117
-19.5042
-19.7871
-20.0608
-20.3258
-20.5825
-20.8315
-21.0733
-21.3082
-21.5365
-21.7586
-21.9748
-22.1852
-22.39
-22.5893
-22.7834
-22.9724
-23.1562
-23.3353
-23.5097
-23.6795
-23.8447
-24.0056
-24.1625
-24.3153
-24.4643
-24.6097
-24.7518
-24.8907
-25.0266
-25.1597
-25.2903
-25.4186
-25.5446
-25.6683
-25.79
-25.9098
-26.0276
-26.1435
-26.2578
-26.3706
-26.4819
-26.5917
-26.7002
-26.8076
-26.9138
-27.0187
-27.1223
-27.2247
-27.3258
-27.4256
-27.5238
-27.6205
-27.7159
-27.8098
-27.9023
-27.9932
-28.0827
-28.1708
-28.2575
-28.3428
-28.4265
-28.5089
-28.59
-28.6697
-28.7481
-28.8251
-28.9008
-28.9754
-29.0488
-29.1209
-29.1917
-29.2614
-29.33
-29.3974
-29.4637
-29.5287
-29.5927
-29.6556
-29.7175
-29.7782
-29.8377
-29.8961
-29.9534
-30.0098
-30.065
-30.1192
-30.1725
-30.225
-30.2767
-30.3276
-30.3777
-30.4269
-30.4754
-30.5232
-30.5703
-30.6167
-30.6623
-30.7072
-30.7514
-30.795
-30.8379
-30.8802
-30.9217
-30.9626
-31.003
-31.0429
-31.0822
-31.1208
-31.1587
-31.1959
-31.2326
-31.2685
-31.3038
-31.3382
-31.3719
-31.4048
-31.4371
-31.4686
-31.4994
-31.5294
-31.5587
-31.5873
-31.6154
-31.6428
-31.6696
-31.6957
-31.7211
-31.7458
-31.7699
-31.7935
-31.8164
-31.8387
-31.8603
-31.8815
-31.9021
-31.9223
-31.9421
-31.9615
-31.9803
-31.9988
-32.017
-32.0348
-32.0523
-32.0694
-32.0861
-32.1023
-32.1182
-32.1338
-32.149
-32.1638
-32.1782
-32.192
-32.2055
-32.2185
-32.2311
-32.2432
-32.2549
-32.266
-32.2765
-32.2863
-32.2955
-32.3041
-32.3121
-32.3194
-32.3262
-32.3322
-32.3377
-32.3427
-32.3473
-32.3515
-32.3552
-32.3584
-32.3613
-32.3638
-32.3659
-32.3675
-32.3687
-32.3695
-12.5597
-12.6626
-12.8297
-13.0598
-13.3431
-13.6671
-14.0213
-14.3963
-14.7836
-15.1759
-15.5677
-15.9558
-16.338
-16.7121
-17.0766
-17.431
-17.7748
-18.1079
-18.4307
-18.7433
-19.0456
-19.3383
-19.6217
-19.8963
-20.1624
-20.4207
-20.6714
-20.915
-21.1518
-21.3822
-21.6065
-21.825
-22.0378
-22.2451
-22.447
-22.6437
-22.8354
-23.022
-23.2037
-23.3809
-23.5534
-23.7213
-23.8848
-24.0443
-24.1996
-24.3509
-24.4985
-24.6427
-24.7836
-24.9212
-25.056
-25.1881
-25.3178
-25.445
-25.5699
-25.6928
-25.8137
-25.9326
-26.0494
-26.1646
-26.2782
-26.3902
-26.5007
-26.6098
-26.7178
-26.8246
-26.9301
-27.0344
-27.1375
-27.2394
-27.3401
-27.4392
-27.5369
-27.6333
-27.7283
-27.8218
-27.9138
-28.0043
-28.0935
-28.1814
-28.2678
-28.3527
-28.4362
-28.5184
-28.5993
-28.6788
-28.757
-28.8338
-28.9095
-28.984
-29.0572
-29.1291
-29.1999
-29.2695
-29.338
-29.4053
-29.4714
-29.5363
-29.6002
-29.6631
-29.7249
-29.7854
-29.8448
-29.9031
-29.9604
-30.0166
-30.0717
-30.1258
-30.1791
-30.2315
-30.2832
-30.334
-30.3839
-30.4331
-30.4816
-30.5294
-30.5765
-30.6228
-30.6684
-30.7133
-30.7576
-30.8012
-30.8442
-30.8864
-30.928
-30.969
-31.0095
-31.0494
-31.0888
-31.1274
-31.1654
-31.2027
-31.2394
-31.2754
-31.3106
-31.345
-31.3787
-31.4116
-31.4439
-31.4754
-31.506
-31.5359
-31.5651
-31.5937
-31.6217
-31.649
-31.6756
-31.7016
-31.7268
-31.7515
-31.7755
-31.799
-31.8218
-31.844
-31.8656
-31.8867
-31.9073
-31.9275
-31.9473
-31.9666
-31.9855
-32.0041
-32.0223
-32.0402
-32.0577
-32.0749
-32.0916
-32.1079
-32.1239
-32.1395
-32.1548
-32.1696
-32.184
-32.1979
-32.2113
-32.2243
-32.2369
-32.2491
-32.2607
-32.2718
-32.2822
-32.292
-32.3011
-32.3097
-32.3176
-32.3249
-32.3315
-32.3375
-32.343
-32.3479
-32.3524
-32.3566
-32.3603
-32.3635
-32.3663
-32.3688
-32.3709
-32.3726
-32.3739
-32.3748
-13.309
-13.3936
-13.5317
-13.7235
-13.9629
-14.2406
-14.5471
-14.875
-15.218
-15.5695
-15.9247
-16.2796
-16.6316
-16.9787
-17.3196
-17.653
-17.978
-18.2945
-18.6024
-18.9015
-19.1919
-19.4739
-19.7477
-20.0134
-20.2717
-20.5228
-20.7671
-21.0048
-21.2363
-21.4619
-21.6818
-21.8963
-22.1055
-22.3093
-22.5082
-22.7021
-22.891
-23.0751
-23.2546
-23.4296
-23.6
-23.7659
-23.9277
-24.0855
-24.2391
-24.3889
-24.5351
-24.678
-24.8175
-24.9539
-25.0875
-25.2187
-25.3472
-25.4734
-25.5974
-25.7194
-25.8394
-25.9574
-26.0734
-26.1879
-26.3008
-26.412
-26.5218
-26.6304
-26.7378
-26.844
-26.9489
-27.0526
-27.1553
-27.2568
-27.3568
-27.4555
-27.5528
-27.6487
-27.7433
-27.8363
-27.9279
-28.0181
-28.107
-28.1946
-28.2806
-28.3652
-28.4485
-28.5305
-28.6111
-28.6903
-28.7682
-28.8449
-28.9204
-28.9947
-29.0677
-29.1395
-29.2101
-29.2796
-29.3479
-29.415
-29.4809
-29.5458
-29.6096
-29.6723
-29.7339
-29.7943
-29.8536
-29.9118
-29.969
-30.025
-30.08
-30.134
-30.1872
-30.2396
-30.2912
-30.3419
-30.3918
-30.4409
-30.4894
-30.5372
-30.5842
-30.6305
-30.6761
-30.721
-30.7654
-30.809
-30.8519
-30.8942
-30.9358
-30.9768
-31.0174
-31.0574
-31.0967
-31.1353
-31.1733
-31.2107
-31.2474
-31.2833
-31.3185
-31.3528
-31.3864
-31.4194
-31.4515
-31.4829
-31.5135
-31.5433
-31.5724
-31.6009
-31.6288
-31.6561
-31.6826
-31.7085
-31.7337
-31.7583
-31.7823
-31.8057
-31.8285
-31.8507
-31.8723
-31.8934
-31.9141
-31.9344
-31.9542
-31.9735
-31.9925
-32.0111
-32.0293
-32.0473
-32.0649
-32.082
-32.0988
-32.1151
-32.1311
-32.1467
-32.1619
-32.1767
-32.191
-32.2048
-32.2182
-32.2311
-32.2436
-32.2557
-32.2673
-32.2782
-32.2886
-32.2983
-32.3074
-32.3159
-32.3238
-32.331
-32.3376
-32.3436
-32.3491
-32.3541
-32.3587
-32.3628
-32.3665
-32.3698
-32.3726
-32.3751
-32.3772
-32.379
-32.3803
-32.3812
-13.9914
-14.0628
-14.1794
-14.3413
-14.5453
-14.7849
-15.0524
-15.341
-15.6452
-15.9606
-16.2824
-16.6068
-16.9307
-17.2525
-17.5705
-17.8832
-18.1899
-18.4899
-18.7827
-19.0682
-19.3464
-19.6174
-19.8811
-20.1379
-20.3879
-20.6315
-20.869
-21.1005
-21.3264
-21.5469
-21.7622
-21.9724
-22.1775
-22.3778
-22.5734
-22.7641
-22.9501
-23.1316
-23.3086
-23.4812
-23.6493
-23.8133
-23.9732
-24.129
-24.2809
-24.4291
-24.5739
-24.7153
-24.8534
-24.9886
-25.1212
-25.2512
-25.3786
-25.5038
-25.627
-25.7481
-25.8671
-25.9842
-26.0996
-26.2133
-26.3254
-26.436
-26.5452
-26.6532
-26.7601
-26.8657
-26.9701
-27.0734
-27.1756
-27.2766
-27.3761
-27.4743
-27.5712
-27.6667
-27.7608
-27.8534
-27.9446
-28.0345
-28.1231
-28.2102
-28.2959
-28.3802
-28.4632
-28.5449
-28.6252
-28.7041
-28.7817
-28.8582
-28.9335
-29.0075
-29.0802
-29.1518
-29.2222
-29.2915
-29.3596
-29.4265
-29.4922
-29.5569
-29.6206
-29.6831
-29.7444
-29.8047
-29.8638
-29.9219
-29.9789
-30.0348
-30.0897
-30.1436
-30.1968
-30.2491
-30.3006
-30.3512
-30.401
-30.4502
-30.4986
-30.5464
-30.5934
-30.6396
-30.6852
-30.7302
-30.7745
-30.8181
-30.861
-30.9032
-30.9448
-30.9859
-31.0265
-31.0664
-31.1056
-31.1442
-31.1822
-31.2195
-31.2561
-31.292
-31.327
-31.3613
-31.3949
-31.4277
-31.4598
-31.491
-31.5215
-31.5512
-31.5803
-31.6088
-31.6366
-31.6638
-31.6903
-31.7162
-31.7414
-31.766
-31.7901
-31.8135
-31.8363
-31.8586
-31.8802
-31.9015
-31.9223
-31.9426
-31.9624
-31.9818
-32.0008
-32.0195
-32.0378
-32.0558
-32.0734
-32.0905
-32.1072
-32.1235
-32.1394
-32.1549
-32.17
-32.1847
-32.1988
-32.2125
-32.2257
-32.2385
-32.251
-32.2629
-32.2743
-32.2852
-32.2955
-32.3052
-32.3143
-32.3227
-32.3306
-32.3378
-32.3444
-32.3505
-32.3561
-32.3612
-32.3659
-32.37
-32.3738
-32.3771
-32.38
-32.3826
-32.3847
-32.3865
-32.3878
-32.3886
-14.6183
-14.6795
-14.7795
-14.9187
-15.0939
-15.3016
-15.5365
-15.7919
-16.0632
-16.3466
-16.6381
-16.9344
-17.2328
-17.5309
-17.8269
-18.1198
-18.4085
-18.6921
-18.9701
-19.2421
-19.5081
-19.7677
-20.0213
-20.2688
-20.5103
-20.7462
-20.9766
-21.2017
-21.4217
-21.6369
-21.8473
-22.0529
-22.2539
-22.4504
-22.6424
-22.8297
-23.0127
-23.1914
-23.3657
-23.5357
-23.7015
-23.8633
-24.0211
-24.1749
-24.325
-24.4717
-24.6148
-24.7546
-24.8914
-25.0254
-25.1568
-25.2856
-25.4119
-25.5362
-25.6584
-25.7786
-25.8967
-26.013
-26.1277
-26.2408
-26.3521
-26.4621
-26.5708
-26.6783
-26.7846
-26.8896
-26.9936
-27.0965
-27.1983
-27.2987
-27.3977
-27.4955
-27.592
-27.6871
-27.7807
-27.8729
-27.9637
-28.0533
-28.1414
-28.2281
-28.3134
-28.3974
-28.4801
-28.5614
-28.6413
-28.7198
-28.7972
-28.8734
-28.9483
-29.022
-29.0944
-29.1657
-29.2359
-29.3049
-29.3727
-29.4393
-29.5048
-29.5693
-29.6327
-29.695
-29.7561
-29.8162
-29.8752
-29.9331
-29.9899
-30.0456
-30.1004
-30.1543
-30.2074
-30.2596
-30.311
-30.3616
-30.4114
-30.4605
-30.509
-30.5567
-30.6036
-30.6498
-30.6954
-30.7404
-30.7847
-30.8282
-30.8711
-30.9132
-30.9549
-30.9959
-31.0364
-31.0762
-31.1153
-31.1539
-31.1917
-31.229
-31.2654
-31.3011
-31.336
-31.3702
-31.4036
-31.4364
-31.4683
-31.4994
-31.5298
-31.5594
-31.5885
-31.617
-31.6448
-31.672
-31.6985
-31.7243
-31.7496
-31.7744
-31.7985
-31.822
-31.8449
-31.8672
-31.889
-31.9104
-31.9313
-31.9518
-31.9717
-31.9911
-32.0102
-32.0289
-32.0473
-32.0652
-32.0828
-32.0998
-32.1164
-32.1326
-32.1483
-32.1637
-32.1787
-32.1931
-32.207
-32.2205
-32.2336
-32.2462
-32.2585
-32.2703
-32.2816
-32.2923
-32.3026
-32.3122
-32.3213
-32.3299
-32.3377
-32.345
-32.3517
-32.3579
-32.3636
-32.3689
-32.3737
-32.3781
-32.3819
-32.3853
-32.3883
-32.3909
-32.393
-32.3948
-32.396
-32.3967
-15.1991
-15.2512
-15.338
-15.4591
-15.6118
-15.7933
-15.9998
-16.227
-16.4702
-16.7255
-16.9899
-17.2608
-17.5354
-17.8113
-18.0869
-18.361
-18.6322
-18.8999
-19.1633
-19.422
-19.6756
-19.9241
-20.1674
-20.4054
-20.6383
-20.8663
-21.0895
-21.3079
-21.5219
-21.7316
-21.9368
-22.1377
-22.3344
-22.5269
-22.715
-22.8989
-23.0788
-23.2544
-23.4258
-23.5931
-23.7565
-23.916
-24.0715
-24.2233
-24.3716
-24.5164
-24.6579
-24.7961
-24.9315
-25.0642
-25.1943
-25.3218
-25.4472
-25.5705
-25.6917
-25.8109
-25.9282
-26.0438
-26.1577
-26.27
-26.3807
-26.4901
-26.5983
-26.7053
-26.811
-26.9156
-27.0192
-27.1217
-27.2229
-27.3228
-27.4215
-27.5189
-27.615
-27.7095
-27.8026
-27.8944
-27.9849
-28.074
-28.1617
-28.2479
-28.3328
-28.4164
-28.4987
-28.5795
-28.659
-28.7372
-28.8143
-28.8901
-28.9646
-29.0378
-29.1099
-29.1809
-29.2508
-29.3194
-29.3868
-29.4531
-29.5184
-29.5826
-29.6457
-29.7077
-29.7686
-29.8285
-29.8873
-29.945
-30.0016
-30.0572
-30.1118
-30.1657
-30.2187
-30.2709
-30.3222
-30.3727
-30.4225
-30.4717
-30.5201
-30.5677
-30.6146
-30.6608
-30.7064
-30.7514
-30.7956
-30.8391
-30.8818
-30.924
-30.9655
-31.0065
-31.0468
-31.0865
-31.1255
-31.1639
-31.2016
-31.2387
-31.2749
-31.3104
-31.3451
-31.3791
-31.4125
-31.445
-31.4768
-31.5078
-31.5381
-31.5677
-31.5967
-31.6252
-31.653
-31.6802
-31.7067
-31.7327
-31.7581
-31.783
-31.8072
-31.8308
-31.8538
-31.8763
-31.8983
-31.9199
-31.9409
-31.9614
-31.9814
-32.0009
-32.02
-32.0388
-32.0571
-32.075
-32.0924
-32.1093
-32.1258
-32.1418
-32.1574
-32.1726
-32.1873
-32.2015
-32.2152
-32.2285
-32.2413
-32.2538
-32.2659
-32.2776
-32.2887
-32.2994
-32.3096
-32.3193
-32.3285
-32.3371
-32.345
-32.3524
-32.3592
-32.3656
-32.3715
-32.377
-32.382
-32.3865
-32.3905
-32.394
-32.397
-32.3996
-32.4018
-32.4035
-32.4046
-32.4052
-15.7411
-15.7854
-15.8601
-15.9664
-16.1012
-16.2611
-16.4438
-16.6464
-16.8649
-17.0958
-17.3364
-17.5842
-17.8368
-18.0922
-18.3488
-18.6049
-18.8595
-19.1119
-19.3611
-19.6066
-19.8482
-20.0856
-20.3185
-20.5471
-20.7714
-20.9914
-21.2072
-21.419
-21.6269
-21.8307
-22.0307
-22.2268
-22.419
-22.6072
-22.7915
-22.9719
-23.1483
-23.3206
-23.4891
-23.6537
-23.8145
-23.9714
-24.1246
-24.2743
-24.4206
-24.5635
-24.7031
-24.8399
-24.9738
-25.1051
-25.2337
-25.3601
-25.4844
-25.6066
-25.7268
-25.845
-25.9614
-26.0763
-26.1894
-26.3009
-26.4111
-26.5199
-26.6276
-26.734
-26.8392
-26.9433
-27.0465
-27.1485
-27.2492
-27.3487
-27.447
-27.544
-27.6395
-27.7336
-27.8263
-27.9177
-28.0077
-28.0963
-28.1835
-28.2692
-28.3538
-28.4369
-28.5187
-28.599
-28.678
-28.7558
-28.8324
-28.9078
-28.9818
-29.0546
-29.1264
-29.197
-29.2664
-29.3346
-29.4016
-29.4676
-29.5325
-29.5964
-29.6592
-29.7209
-29.7816
-29.8412
-29.8998
-29.9573
-30.0137
-30.0691
-30.1237
-30.1775
-30.2305
-30.2825
-30.3338
-30.3843
-30.4342
-30.4833
-30.5316
-30.5792
-30.6261
-30.6724
-30.718
-30.7629
-30.807
-30.8503
-30.893
-30.9351
-30.9766
-31.0174
-31.0575
-31.097
-31.1358
-31.174
-31.2116
-31.2484
-31.2844
-31.3196
-31.3542
-31.388
-31.4212
-31.4536
-31.4852
-31.516
-31.5462
-31.5758
-31.6048
-31.6333
-31.6611
-31.6883
-31.7149
-31.741
-31.7666
-31.7916
-31.8159
-31.8397
-31.8629
-31.8855
-31.9077
-31.9294
-31.9505
-31.9711
-31.9911
-32.0107
-32.0298
-32.0486
-32.0669
-32.0847
-32.1019
-32.1187
-32.135
-32.1508
-32.1662
-32.1812
-32.1956
-32.2095
-32.223
-32.236
-32.2487
-32.2611
-32.273
-32.2845
-32.2956
-32.3062
-32.3165
-32.3263
-32.3355
-32.3442
-32.3523
-32.3598
-32.3668
-32.3734
-32.3795
-32.3852
-32.3904
-32.3951
-32.3992
-32.4028
-32.4059
-32.4085
-32.4107
-32.4122
-32.4132
-32.4137
-16.2484
-16.2866
-16.3515
-16.4446
-16.5639
-16.7063
-16.8694
-17.0505
-17.2472
-17.4567
-17.6762
-17.9031
-18.1358
-18.3723
-18.6109
-18.8502
-19.0892
-19.3268
-19.5623
-19.7951
-20.0249
-20.2513
-20.4742
-20.6935
-20.9091
-21.1211
-21.3296
-21.5347
-21.7362
-21.9343
-22.1289
-22.3201
-22.5076
-22.6915
-22.8718
-23.0484
-23.2213
-23.3903
-23.5557
-23.7174
-23.8754
-24.0297
-24.1805
-24.328
-24.4722
-24.613
-24.7508
-24.8859
-25.0182
-25.1479
-25.2752
-25.4004
-25.5235
-25.6445
-25.7635
-25.8808
-25.9964
-26.1103
-26.2226
-26.3334
-26.443
-26.5513
-26.6583
-26.7641
-26.8688
-26.9726
-27.0752
-27.1767
-27.2769
-27.376
-27.4738
-27.5703
-27.6653
-27.7589
-27.8512
-27.9421
-28.0316
-28.1197
-28.2063
-28.2917
-28.3757
-28.4583
-28.5395
-28.6194
-28.6979
-28.7753
-28.8513
-28.9261
-28.9996
-29.072
-29.1433
-29.2135
-29.2824
-29.3501
-29.4167
-29.4824
-29.547
-29.6105
-29.6729
-29.7343
-29.7947
-29.8541
-29.9125
-29.9697
-30.026
-30.0813
-30.1358
-30.1895
-30.2424
-30.2944
-30.3456
-30.3962
-30.446
-30.4951
-30.5434
-30.591
-30.6379
-30.6841
-30.7297
-30.7745
-30.8186
-30.8618
-30.9044
-30.9464
-30.9877
-31.0284
-31.0683
-31.1075
-31.1462
-31.1841
-31.2214
-31.258
-31.2937
-31.3287
-31.363
-31.3967
-31.4296
-31.4618
-31.4933
-31.524
-31.5541
-31.5837
-31.6127
-31.6412
-31.669
-31.6963
-31.723
-31.7493
-31.775
-31.8001
-31.8246
-31.8485
-31.8718
-31.8946
-31.9169
-31.9387
-31.9599
-31.9806
-32.0006
-32.0202
-32.0393
-32.058
-32.0762
-32.0938
-32.1109
-32.1275
-32.1436
-32.1592
-32.1744
-32.1891
-32.2032
-32.2169
-32.2302
-32.2431
-32.2556
-32.2678
-32.2796
-32.291
-32.3021
-32.3128
-32.3231
-32.3329
-32.3423
-32.3511
-32.3594
-32.367
-32.3742
-32.381
-32.3873
-32.3932
-32.3985
-32.4033
-32.4076
-32.4112
-32.4144
-32.417
-32.4191
-32.4206
-32.4214
-32.4218
-16.7239
-16.7581
-16.8154
-16.897
-17.0028
-17.1304
-17.2765
-17.4395
-17.6173
-17.8077
-18.0081
-18.2165
-18.4312
-18.6502
-18.8722
-19.0958
-19.32
-19.5436
-19.766
-19.9866
-20.2049
-20.4207
-20.6337
-20.8437
-21.0508
-21.255
-21.4563
-21.6545
-21.8498
-22.0421
-22.2314
-22.4175
-22.6002
-22.7798
-22.956
-23.1287
-23.2978
-23.4635
-23.6257
-23.7843
-23.9394
-24.091
-24.2394
-24.3845
-24.5263
-24.6651
-24.801
-24.9343
-25.0648
-25.1929
-25.3188
-25.4426
-25.5643
-25.684
-25.8019
-25.9182
-26.0328
-26.1458
-26.2572
-26.3673
-26.4762
-26.5838
-26.6901
-26.7954
-26.8996
-27.0029
-27.105
-27.2059
-27.3057
-27.4043
-27.5017
-27.5976
-27.692
-27.7851
-27.8769
-27.9673