/*--------------------------------*- C++ -*----------------------------------*\
| =========                 |                                                 |
| \\      /  F ield         | OpenFOAM: The Open Source CFD Toolbox           |
|  \\    /   O peration     | Version:  3.0.1                                 |
|   \\  /    A nd           | Web:      www.OpenFOAM.org                      |
|    \\/     M anipulation  |                                                 |
\*---------------------------------------------------------------------------*/
FoamFile
{
    version     2.0;
    format      ascii;
    class       surfaceScalarField;
    location    "1";
    object      phi;
}
// * * * * * * * * * * * * * * * * * * * * * * * * * * * * * * * * * * * * * //

dimensions      [0 3 -1 0 0 0 0];

internalField   nonuniform List<scalar> 
159400
(
7.62258e-14
-5.23107e-14
5.60204e-10
-5.60127e-10
5.52879e-10
7.32303e-12
5.42379e-10
1.05044e-11
5.03532e-10
3.88492e-11
4.60168e-10
4.33642e-11
4.18327e-10
4.18421e-11
3.80544e-10
3.77831e-11
3.4706e-10
3.34848e-11
3.17398e-10
2.96602e-11
2.91413e-10
2.59876e-11
2.69294e-10
2.21185e-11
2.50496e-10
1.8798e-11
2.34113e-10
1.63785e-11
2.19215e-10
1.48965e-11
2.05883e-10
1.33313e-11
1.94601e-10
1.12804e-11
1.8526e-10
9.34224e-12
1.77307e-10
7.94721e-12
1.70186e-10
7.12298e-12
1.63749e-10
6.43189e-12
1.58276e-10
5.47509e-12
1.53968e-10
4.30509e-12
1.50653e-10
3.31192e-12
1.47955e-10
2.69705e-12
1.45751e-10
2.19685e-12
1.44088e-10
1.66529e-12
1.43034e-10
1.05046e-12
1.42393e-10
6.41874e-13
1.42431e-10
-3.77903e-14
1.43004e-10
-5.76325e-13
1.43771e-10
-7.63691e-13
1.44675e-10
-9.06566e-13
1.46127e-10
-1.45065e-12
1.4791e-10
-1.78021e-12
1.49706e-10
-1.79809e-12
1.51857e-10
-2.14507e-12
1.54412e-10
-2.55273e-12
1.56918e-10
-2.50384e-12
1.59483e-10
-2.55802e-12
1.62275e-10
-2.79297e-12
1.65236e-10
-2.95869e-12
1.68145e-10
-2.9056e-12
1.71056e-10
-2.91343e-12
1.74217e-10
-3.1573e-12
1.77473e-10
-3.25461e-12
1.80536e-10
-3.06518e-12
1.83606e-10
-3.06752e-12
1.86841e-10
-3.23704e-12
1.89998e-10
-3.16084e-12
1.92984e-10
-2.98485e-12
1.95917e-10
-2.9378e-12
1.98895e-10
-2.98186e-12
2.01764e-10
-2.86892e-12
2.04366e-10
-2.60658e-12
2.06786e-10
-2.42276e-12
2.09126e-10
-2.33812e-12
2.11215e-10
-2.09256e-12
2.13005e-10
-1.79016e-12
2.14567e-10
-1.55619e-12
2.16026e-10
-1.45808e-12
2.17198e-10
-1.16883e-12
2.17997e-10
-7.9275e-13
2.18477e-10
-4.79152e-13
2.18718e-10
-2.42797e-13
2.18704e-10
1.4872e-14
2.1828e-10
4.20052e-13
2.17432e-10
8.41567e-13
2.16268e-10
1.16298e-12
2.14808e-10
1.45556e-12
2.12927e-10
1.87546e-12
2.10626e-10
2.30113e-12
2.07926e-10
2.70143e-12
2.04925e-10
3.00066e-12
2.01589e-10
3.33999e-12
1.97821e-10
3.77465e-12
1.93685e-10
4.1373e-12
1.89234e-10
4.45313e-12
1.84506e-10
4.73142e-12
1.79397e-10
5.10661e-12
1.73937e-10
5.45462e-12
1.68156e-10
5.77889e-12
1.62187e-10
5.96665e-12
1.55942e-10
6.24057e-12
1.49465e-10
6.47715e-12
1.42597e-10
6.86861e-12
1.3557e-10
7.02503e-12
1.2832e-10
7.25077e-12
1.20888e-10
7.44005e-12
1.132e-10
7.69691e-12
1.05325e-10
7.87788e-12
9.73173e-11
8.00623e-12
8.92007e-11
8.10644e-12
8.09543e-11
8.23129e-12
7.25637e-11
8.38446e-12
6.40594e-11
8.51207e-12
5.54939e-11
8.57761e-12
4.68913e-11
8.61089e-12
3.82563e-11
8.63722e-12
2.95963e-11
8.65413e-12
2.09177e-11
8.66809e-12
1.23224e-11
8.59098e-12
3.79002e-12
8.53718e-12
-4.67847e-12
8.47421e-12
-1.31001e-11
8.42364e-12
-2.14272e-11
8.32879e-12
-2.96141e-11
8.18865e-12
-3.76321e-11
8.01733e-12
-4.54764e-11
7.84276e-12
-5.31429e-11
7.66627e-12
-6.06217e-11
7.4775e-12
-6.78721e-11
7.24707e-12
-7.48526e-11
6.9798e-12
-8.1575e-11
6.72552e-12
-8.80427e-11
6.46949e-12
-9.42592e-11
6.2155e-12
-1.00193e-10
5.93355e-12
-1.05818e-10
5.62501e-12
-1.11129e-10
5.30996e-12
-1.16136e-10
5.00618e-12
-1.20853e-10
4.71827e-12
-1.25252e-10
4.40209e-12
-1.29296e-10
4.04396e-12
-1.32965e-10
3.6684e-12
-1.36264e-10
3.30095e-12
-1.39201e-10
2.93832e-12
-1.41776e-10
2.5741e-12
-1.4398e-10
2.20316e-12
-1.4579e-10
1.81174e-12
-1.47217e-10
1.42773e-12
-1.48291e-10
1.07275e-12
-1.49017e-10
7.26289e-13
-1.49398e-10
3.82096e-13
-1.49433e-10
3.53078e-14
-1.49113e-10
-3.20872e-13
-1.4846e-10
-6.5436e-13
-1.47477e-10
-9.82468e-13
-1.46196e-10
-1.28087e-12
-1.44623e-10
-1.57421e-12
-1.42742e-10
-1.88152e-12
-1.40554e-10
-2.18681e-12
-1.38071e-10
-2.48266e-12
-1.35327e-10
-2.74536e-12
-1.32338e-10
-2.99044e-12
-1.29117e-10
-3.22109e-12
-1.25665e-10
-3.45236e-12
-1.21995e-10
-3.6706e-12
-1.18133e-10
-3.86205e-12
-1.14109e-10
-4.02204e-12
-1.09951e-10
-4.15595e-12
-1.05656e-10
-4.29568e-12
-1.01237e-10
-4.41992e-12
-9.66978e-11
-4.53908e-12
-9.20576e-11
-4.64027e-12
-8.73431e-11
-4.71602e-12
-8.25864e-11
-4.75789e-12
-7.78034e-11
-4.78263e-12
-7.29927e-11
-4.81008e-12
-6.8167e-11
-4.82702e-12
-6.33395e-11
-4.82971e-12
-5.85479e-11
-4.7923e-12
-5.38152e-11
-4.73192e-12
-4.91553e-11
-4.6594e-12
-4.45785e-11
-4.57687e-12
-4.00878e-11
-4.48952e-12
-3.57082e-11
-4.37766e-12
-3.1442e-11
-4.26557e-12
-2.73193e-11
-4.12394e-12
-2.33525e-11
-3.96768e-12
-1.9559e-11
-3.79303e-12
-1.59212e-11
-3.63702e-12
-1.24584e-11
-3.46311e-12
-9.19191e-12
-3.26705e-12
-6.1234e-12
-3.06831e-12
-3.28601e-12
-2.83717e-12
-6.8358e-13
-2.60325e-12
1.69932e-12
-2.38398e-12
3.8569e-12
-2.15722e-12
5.76934e-12
-1.91081e-12
7.43214e-12
-1.6618e-12
8.84289e-12
-1.41122e-12
9.97495e-12
-1.1329e-12
1.08405e-11
-8.65949e-13
1.14563e-11
-6.16581e-13
1.18386e-11
-3.84309e-13
1.19857e-11
-1.49179e-13
1.19033e-11
8.14535e-14
1.15728e-11
3.3063e-13
1.10122e-11
5.60288e-13
1.02619e-11
7.49601e-13
9.34678e-12
9.1491e-13
8.28781e-12
1.05968e-12
7.0846e-12
1.20373e-12
5.7159e-12
1.36847e-12
4.27172e-12
1.44418e-12
2.99366e-12
1.27913e-12
2.14523e-12
8.49767e-13
1.20977e-12
9.35771e-13
1.58531e-13
1.05076e-12
1.58664e-13
-5.60711e-10
5.60659e-10
-5.61901e-10
-5.58933e-10
-3.21085e-10
-2.33496e-10
-2.20911e-10
-8.96711e-11
-1.46519e-10
-3.55388e-11
-9.72694e-11
-5.88662e-12
-6.46929e-11
9.267e-12
-4.41413e-11
1.72354e-11
-3.09856e-11
2.03284e-11
-2.19359e-11
2.06111e-11
-1.58397e-11
1.98866e-11
-1.19273e-11
1.82079e-11
-8.90603e-12
1.57766e-11
-6.14355e-12
1.36165e-11
-3.21217e-12
1.19641e-11
-1.10675e-13
1.02252e-11
3.02664e-12
8.14733e-12
6.66017e-12
5.70528e-12
1.10159e-11
3.59952e-12
1.59167e-11
2.21612e-12
2.14878e-11
8.65553e-13
2.77061e-11
-7.44704e-13
3.44432e-11
-2.42872e-12
4.18399e-11
-4.0755e-12
4.98426e-11
-5.3067e-12
5.85251e-11
-6.47552e-12
6.79368e-11
-7.75063e-12
7.77239e-11
-8.73482e-12
8.82906e-11
-9.92395e-12
9.93657e-11
-1.112e-11
1.10868e-10
-1.20738e-11
1.22802e-10
-1.27046e-11
1.35349e-10
-1.3454e-11
1.48245e-10
-1.43445e-11
1.61366e-10
-1.49072e-11
1.74918e-10
-1.53461e-11
1.88904e-10
-1.6135e-11
2.03009e-10
-1.6664e-11
2.17366e-10
-1.68593e-11
2.31839e-10
-1.70394e-11
2.46471e-10
-1.74268e-11
2.60933e-10
-1.74194e-11
2.75346e-10
-1.73272e-11
2.8989e-10
-1.74555e-11
3.04387e-10
-1.76546e-11
3.18602e-10
-1.74738e-11
3.32613e-10
-1.70681e-11
3.46537e-10
-1.69899e-11
3.5998e-10
-1.66796e-11
3.72976e-10
-1.61476e-11
3.8565e-10
-1.56576e-11
3.97958e-10
-1.5244e-11
4.09735e-10
-1.47501e-11
4.20934e-10
-1.40679e-11
4.31489e-10
-1.31619e-11
4.41449e-10
-1.23767e-11
4.50695e-10
-1.15894e-11
4.59159e-10
-1.05627e-11
4.66899e-10
-9.53209e-12
4.73878e-10
-8.54774e-12
4.79974e-10
-7.56502e-12
4.85348e-10
-6.54671e-12
4.89663e-10
-5.11472e-12
4.93087e-10
-3.90659e-12
4.95525e-10
-2.67416e-12
4.97022e-10
-1.47903e-12
4.97463e-10
-2.01097e-14
4.96849e-10
1.46547e-12
4.95271e-10
2.7465e-12
4.92657e-10
4.06985e-12
4.88986e-10
5.55227e-12
4.84255e-10
7.03409e-12
4.78484e-10
8.46416e-12
4.71682e-10
9.79816e-12
4.63829e-10
1.11909e-11
4.5485e-10
1.27436e-11
4.44912e-10
1.40692e-11
4.34026e-10
1.53411e-11
4.2205e-10
1.67084e-11
4.09142e-10
1.80181e-11
3.95187e-10
1.94198e-11
3.80528e-10
2.04445e-11
3.64864e-10
2.1628e-11
3.4835e-10
2.27557e-11
3.31061e-10
2.37686e-11
3.13037e-10
2.48898e-11
2.94183e-10
2.58753e-11
2.74636e-10
2.67931e-11
2.54431e-10
2.76324e-11
2.33656e-10
2.84617e-11
2.12299e-10
2.92411e-11
1.90436e-10
2.98882e-11
1.6812e-10
3.04376e-11
1.4537e-10
3.0987e-11
1.22309e-10
3.14395e-11
9.89299e-11
3.1872e-11
7.53198e-11
3.21698e-11
5.15093e-11
3.24223e-11
2.7596e-11
3.25644e-11
3.63156e-12
3.26299e-11
-2.03216e-11
3.26262e-11
-4.41851e-11
3.24549e-11
-6.79292e-11
3.22765e-11
-9.14968e-11
3.20375e-11
-1.14833e-10
3.17634e-11
-1.37883e-10
3.13849e-11
-1.6059e-10
3.0896e-11
-1.82903e-10
3.0327e-11
-2.04754e-10
2.96945e-11
-2.26102e-10
2.90162e-11
-2.46888e-10
2.826e-11
-2.67051e-10
2.74081e-11
-2.86553e-10
2.64834e-11
-3.05336e-10
2.55082e-11
-3.23386e-10
2.45185e-11
-3.4063e-10
2.34611e-11
-3.57046e-10
2.23536e-11
-3.72617e-10
2.1195e-11
-3.87301e-10
1.99913e-11
-4.01072e-10
1.87781e-11
-4.13898e-10
1.75472e-11
-4.25757e-10
1.62625e-11
-4.36633e-10
1.49202e-11
-4.46504e-10
1.35429e-11
-4.55351e-10
1.2151e-11
-4.63162e-10
1.07473e-11
-4.69923e-10
9.33375e-12
-4.75634e-10
7.91508e-12
-4.80298e-10
6.478e-12
-4.83897e-10
5.02656e-12
-4.86433e-10
3.60813e-12
-4.87926e-10
2.22173e-12
-4.88391e-10
8.48657e-13
-4.87842e-10
-5.17032e-13
-4.86291e-10
-1.87407e-12
-4.83761e-10
-3.18292e-12
-4.80263e-10
-4.47958e-12
-4.75841e-10
-5.7054e-12
-4.70523e-10
-6.89255e-12
-4.64323e-10
-8.07982e-12
-4.5727e-10
-9.23877e-12
-4.49417e-10
-1.03385e-11
-4.4079e-10
-1.13747e-11
-4.31416e-10
-1.23647e-11
-4.21353e-10
-1.32829e-11
-4.10644e-10
-1.41627e-11
-3.99327e-10
-1.49869e-11
-3.87441e-10
-1.57444e-11
-3.75037e-10
-1.64234e-11
-3.6216e-10
-1.70334e-11
-3.48879e-10
-1.75786e-11
-3.35234e-10
-1.80647e-11
-3.21277e-10
-1.84958e-11
-3.07051e-10
-1.88684e-11
-2.92602e-10
-1.9167e-11
-2.77982e-10
-1.93776e-11
-2.63242e-10
-1.9522e-11
-2.48446e-10
-1.96074e-11
-2.33658e-10
-1.96189e-11
-2.1891e-10
-1.95781e-11
-2.04251e-10
-1.94501e-11
-1.89724e-10
-1.92568e-11
-1.75387e-10
-1.89963e-11
-1.61281e-10
-1.86812e-11
-1.4745e-10
-1.83171e-11
-1.33935e-10
-1.78921e-11
-1.2079e-10
-1.7412e-11
-1.08039e-10
-1.68756e-11
-9.57256e-11
-1.62805e-11
-8.38911e-11
-1.56261e-11
-7.25859e-11
-1.49425e-11
-6.18232e-11
-1.42267e-11
-5.16218e-11
-1.34681e-11
-4.2028e-11
-1.26614e-11
-3.30606e-11
-1.18055e-11
-2.474e-11
-1.09253e-11
-1.70904e-11
-1.00328e-11
-1.01294e-11
-9.1155e-12
-3.86839e-12
-8.17019e-12
1.68491e-12
-7.21588e-12
6.53156e-12
-6.25942e-12
1.066e-11
-5.26223e-12
1.40729e-11
-4.28022e-12
1.67696e-11
-3.31647e-12
1.87656e-11
-2.38387e-12
2.00859e-11
-1.47121e-12
2.07468e-11
-5.79473e-13
2.07898e-11
2.87131e-13
2.02476e-11
1.10128e-12
1.91428e-11
1.85417e-12
1.75453e-11
2.51352e-12
1.55538e-11
3.0521e-12
1.33066e-11
3.45066e-12
1.09208e-11
3.7542e-12
8.39011e-12
3.97649e-12
5.72597e-12
3.94547e-12
3.16863e-12
3.40774e-12
1.42659e-12
2.67704e-12
2.28429e-13
2.24889e-12
3.87929e-13
6.02962e-12
5.54627e-10
-2.38574e-10
-3.14329e-10
-2.4121e-10
-2.30857e-10
-2.19367e-10
-1.11519e-10
-1.92566e-10
-6.2338e-11
-1.63787e-10
-3.46679e-11
-1.39754e-10
-1.47659e-11
-1.20321e-10
-2.19884e-12
-1.05075e-10
5.08614e-12
-9.2999e-11
8.53332e-12
-8.29056e-11
9.79213e-12
-7.42332e-11
9.53144e-12
-6.66395e-11
8.18118e-12
-5.96077e-11
6.58579e-12
-5.24099e-11
4.76274e-12
-4.47443e-11
2.56128e-12
-3.66081e-11
1.81565e-15
-2.80501e-11
-2.84903e-12
-1.89058e-11
-5.55183e-12
-8.83924e-12
-7.84734e-12
2.19569e-12
-1.01744e-11
1.42263e-11
-1.27811e-11
2.70059e-11
-1.52088e-11
4.06441e-11
-1.7723e-11
5.53571e-11
-2.00146e-11
7.09464e-11
-2.20701e-11
8.74261e-11
-2.42297e-11
1.04874e-10
-2.61805e-11
1.23161e-10
-2.82176e-11
1.42143e-10
-3.00963e-11
1.61882e-10
-3.18165e-11
1.82449e-10
-3.32709e-11
2.03626e-10
-3.4626e-11
2.25278e-10
-3.60005e-11
2.47526e-10
-3.71481e-11
2.70408e-10
-3.82246e-11
2.93638e-10
-3.93631e-11
3.17124e-10
-4.01405e-11
3.41021e-10
-4.07562e-11
3.65138e-10
-4.11543e-11
3.89192e-10
-4.1474e-11
4.13303e-10
-4.1534e-11
4.37485e-10
-4.15056e-11
4.61551e-10
-4.15187e-11
4.85272e-10
-4.13809e-11
5.08763e-10
-4.09613e-11
5.32012e-10
-4.03186e-11
5.54707e-10
-3.96917e-11
5.76816e-10
-3.87858e-11
5.98335e-10
-3.76709e-11
6.19203e-10
-3.65323e-11
6.39324e-10
-3.53629e-11
6.58544e-10
-3.39745e-11
6.76796e-10
-3.23251e-11
6.94179e-10
-3.05411e-11
7.10466e-10
-2.8665e-11
7.25556e-10
-2.66799e-11
7.3946e-10
-2.44587e-11
7.52156e-10
-2.22256e-11
7.63574e-10
-1.99643e-11
7.73585e-10
-1.75696e-11
7.82043e-10
-1.50053e-11
7.89134e-10
-1.22118e-11
7.94707e-10
-9.47907e-12
7.98681e-10
-6.65232e-12
8.0091e-10
-3.71659e-12
8.01626e-10
-7.37951e-13
8.00754e-10
2.33479e-12
7.98165e-10
5.32842e-12
7.93878e-10
8.35744e-12
7.87873e-10
1.15616e-11
7.80212e-10
1.46949e-11
7.70848e-10
1.78317e-11
7.59675e-10
2.09791e-11
7.46798e-10
2.40701e-11
7.32351e-10
2.71906e-11
7.162e-10
3.02245e-11
6.98384e-10
3.31535e-11
6.78919e-10
3.6165e-11
6.5797e-10
3.89647e-11
6.35533e-10
4.18562e-11
6.1146e-10
4.45121e-11
5.85958e-10
4.71298e-11
5.59102e-10
4.96135e-11
5.30873e-10
5.1995e-11
5.01419e-10
5.43451e-11
4.70737e-10
5.65683e-11
4.38938e-10
5.8602e-11
4.06002e-10
6.0567e-11
3.72108e-10
6.23474e-11
3.37354e-10
6.39818e-11
3.01743e-10
6.54841e-11
2.65377e-10
6.68017e-11
2.28362e-10
6.80179e-11
1.90751e-10
6.90674e-11
1.52679e-10
6.99486e-11
1.14226e-10
7.06185e-11
7.54959e-11
7.11444e-11
3.65552e-11
7.14951e-11
-2.48753e-12
7.16703e-11
-4.1479e-11
7.16262e-11
-8.04004e-11
7.13837e-11
-1.19141e-10
7.10165e-11
-1.5758e-10
7.04765e-11
-1.95611e-10
6.97973e-11
-2.33171e-10
6.89458e-11
-2.70186e-10
6.79083e-11
-3.06543e-10
6.66837e-11
-3.42175e-10
6.53267e-11
-3.76976e-10
6.38134e-11
-4.10861e-10
6.21436e-11
-4.43744e-10
6.02952e-11
-4.75565e-10
5.83071e-11
-5.06257e-10
5.61974e-11
-5.35719e-10
5.39788e-11
-5.639e-10
5.16436e-11
-5.90749e-10
4.92027e-11
-6.16203e-10
4.66467e-11
-6.40209e-10
4.39991e-11
-6.62719e-10
4.12917e-11
-6.83692e-10
3.852e-11
-7.03081e-10
3.56499e-11
-7.20862e-10
3.27025e-11
-7.37016e-10
2.96992e-11
-7.51513e-10
2.66483e-11
-7.64322e-10
2.35545e-11
-7.75431e-10
2.04439e-11
-7.84827e-10
1.73145e-11
-7.92511e-10
1.41613e-11
-7.98486e-10
1.10003e-11
-8.02757e-10
7.88172e-12
-8.05329e-10
4.79566e-12
-8.06228e-10
1.74582e-12
-8.05474e-10
-1.27336e-12
-8.03099e-10
-4.24921e-12
-7.99105e-10
-7.17551e-12
-7.93579e-10
-1.00075e-11
-7.86533e-10
-1.27534e-11
-7.77999e-10
-1.54255e-11
-7.68037e-10
-1.80407e-11
-7.56711e-10
-2.05667e-11
-7.44069e-10
-2.29824e-11
-7.30169e-10
-2.52746e-11
-7.1508e-10
-2.74529e-11
-6.98856e-10
-2.95074e-11
-6.81573e-10
-3.14466e-11
-6.63301e-10
-3.32564e-11
-6.44111e-10
-3.49312e-11
-6.24072e-10
-3.64622e-11
-6.03272e-10
-3.78354e-11
-5.8178e-10
-3.90703e-11
-5.59686e-10
-4.01586e-11
-5.37067e-10
-4.11168e-11
-5.14008e-10
-4.19301e-11
-4.90591e-10
-4.25842e-11
-4.66893e-10
-4.30753e-11
-4.42993e-10
-4.34228e-11
-4.18987e-10
-4.36164e-11
-3.94956e-10
-4.36508e-11
-3.70985e-10
-4.35477e-11
-3.47141e-10
-4.32921e-11
-3.23513e-10
-4.28853e-11
-3.00166e-10
-4.23428e-11
-2.77181e-10
-4.16639e-11
-2.54629e-10
-4.08682e-11
-2.32577e-10
-3.9945e-11
-2.11094e-10
-3.88972e-11
-1.90252e-10
-3.77173e-11
-1.70111e-10
-3.642e-11
-1.5072e-10
-3.50169e-11
-1.32149e-10
-3.35156e-11
-1.14445e-10
-3.19299e-11
-9.76577e-11
-3.02549e-11
-8.18231e-11
-2.84962e-11
-6.69801e-11
-2.66501e-11
-5.31658e-11
-2.47401e-11
-4.04165e-11
-2.27803e-11
-2.87652e-11
-2.07649e-11
-1.82135e-11
-1.87222e-11
-8.78396e-12
-1.66469e-11
-4.93685e-13
-1.45505e-11
6.66598e-12
-1.24226e-11
1.2698e-11
-1.03146e-11
1.76158e-11
-8.23789e-12
2.14193e-11
-6.18995e-12
2.41555e-11
-4.20802e-12
2.5867e-11
-2.29144e-12
2.66005e-11
-4.47781e-13
2.64167e-11
1.28403e-12
2.53925e-11
2.87882e-12
2.35827e-11
4.32423e-12
2.10963e-11
5.53807e-12
1.80939e-11
6.45209e-12
1.4833e-11
7.01556e-12
1.15635e-11
7.24789e-12
8.33291e-12
7.17711e-12
5.20815e-12
6.53183e-12
2.65536e-12
5.2291e-12
9.23267e-13
3.98191e-12
1.31226e-12
8.74255e-12
5.45886e-10
-9.58828e-11
-2.09704e-10
-1.23952e-10
-2.02792e-10
-1.27677e-10
-1.07787e-10
-1.24598e-10
-6.54183e-11
-1.17716e-10
-4.15468e-11
-1.08447e-10
-2.40376e-11
-9.90168e-11
-1.16289e-11
-9.0087e-11
-3.84524e-12
-8.19755e-11
4.24922e-13
-7.45012e-11
2.31817e-12
-6.73928e-11
2.42131e-12
-6.02336e-11
1.02109e-12
-5.25331e-11
-1.11788e-12
-4.40738e-11
-3.69148e-12
-3.50173e-11
-6.49903e-12
-2.50911e-11
-9.91897e-12
-1.42118e-11
-1.37342e-11
-2.20222e-12
-1.75583e-11
1.13362e-11
-2.13854e-11
2.61741e-11
-2.50121e-11
4.21237e-11
-2.87246e-11
5.93607e-11
-3.2451e-11
7.78925e-11
-3.62498e-11
9.77314e-11
-3.98574e-11
1.19053e-10
-4.33921e-11
1.41579e-10
-4.67532e-11
1.65263e-10
-4.98718e-11
1.90045e-10
-5.29951e-11
2.15902e-10
-5.5957e-11
2.4281e-10
-5.87269e-11
2.70737e-10
-6.11938e-11
2.99585e-10
-6.34808e-11
3.29176e-10
-6.55897e-11
3.59501e-10
-6.74735e-11
3.90567e-10
-6.92959e-11
4.22059e-10
-7.08498e-11
4.53961e-10
-7.2045e-11
4.86318e-10
-7.31139e-11
5.19014e-10
-7.3845e-11
5.5175e-10
-7.42134e-11
5.84575e-10
-7.43581e-11
6.17359e-10
-7.42854e-11
6.49913e-10
-7.40773e-11
6.82139e-10
-7.36022e-11
7.14002e-10
-7.28206e-11
7.4542e-10
-7.17387e-11
7.76181e-10
-7.04476e-11
8.0614e-10
-6.87421e-11
8.35278e-10
-6.68114e-11
8.63527e-10
-6.47762e-11
8.90711e-10
-6.25467e-11
9.16666e-10
-5.9933e-11
9.41364e-10
-5.70191e-11
9.64754e-10
-5.39331e-11
9.86705e-10
-5.06224e-11
1.00704e-09
-4.70137e-11
1.02574e-09
-4.3166e-11
1.04278e-09
-3.92671e-11
1.05802e-09
-3.52063e-11
1.07131e-09
-3.08574e-11
1.08257e-09
-2.62669e-11
1.09188e-09
-2.15231e-11
1.09911e-09
-1.671e-11
1.10419e-09
-1.17332e-11
1.10704e-09
-6.5564e-12
1.10767e-09
-1.37026e-12
1.10613e-09
3.8707e-12
1.10228e-09
9.18079e-12
1.09607e-09
1.45714e-11
1.08754e-09
2.00816e-11
1.07669e-09
2.55477e-11
1.06351e-09
3.10107e-11
1.04797e-09
3.65155e-11
1.03008e-09
4.19527e-11
1.00994e-09
4.73428e-11
9.87531e-10
5.26345e-11
9.62876e-10
5.7809e-11
9.36054e-10
6.299e-11
9.06983e-10
6.80376e-11
8.75859e-10
7.29758e-11
8.42691e-10
7.76783e-11
8.07553e-10
8.22708e-11
7.70455e-10
8.67092e-11
7.31489e-10
9.0953e-11
6.90833e-10
9.49966e-11
6.48539e-10
9.88596e-11
6.04684e-10
1.02457e-10
5.59377e-10
1.05881e-10
5.12705e-10
1.09032e-10
4.64804e-10
1.11885e-10
4.15773e-10
1.14505e-10
3.65713e-10
1.16852e-10
3.14753e-10
1.18973e-10
2.63025e-10
1.20795e-10
2.10672e-10
1.2231e-10
1.57781e-10
1.23522e-10
1.04486e-10
1.24441e-10
5.09323e-11
1.25042e-10
-2.74425e-12
1.25343e-10
-5.64159e-11
1.25299e-10
-1.0996e-10
1.24928e-10
-1.63241e-10
1.24299e-10
-2.16143e-10
1.23383e-10
-2.68507e-10
1.22162e-10
-3.20207e-10
1.20643e-10
-3.71128e-10
1.1883e-10
-4.21156e-10
1.16714e-10
-4.70167e-10
1.14337e-10
-5.18052e-10
1.11695e-10
-5.64687e-10
1.08779e-10
-6.09971e-10
1.05581e-10
-6.53798e-10
1.02134e-10
-6.96078e-10
9.84767e-11
-7.36697e-10
9.4599e-11
-7.75574e-10
9.05213e-11
-8.12614e-10
8.62391e-11
-8.47742e-10
8.17741e-11
-8.80894e-10
7.71538e-11
-9.12002e-10
7.24017e-11
-9.40995e-10
6.7511e-11
-9.67824e-10
6.24789e-11
-9.92447e-10
5.73269e-11
-1.01483e-09
5.20872e-11
-1.03495e-09
4.67644e-11
-1.05277e-09
4.13767e-11
-1.06826e-09
3.59341e-11
-1.08141e-09
3.04661e-11
-1.09222e-09
2.49743e-11
-1.10071e-09
1.94814e-11
-1.10685e-09
1.40292e-11
-1.11068e-09
8.62459e-12
-1.11221e-09
3.27344e-12
-1.11147e-09
-2.01341e-12
-1.1085e-09
-7.21478e-12
-1.10336e-09
-1.2319e-11
-1.09608e-09
-1.72907e-11
-1.08671e-09
-2.2126e-11
-1.0753e-09
-2.68278e-11
-1.06194e-09
-3.14058e-11
-1.0467e-09
-3.58134e-11
-1.02965e-09
-4.00311e-11
-1.01087e-09
-4.40488e-11
-9.90459e-10
-4.78637e-11
-9.68499e-10
-5.14685e-11
-9.4508e-10
-5.4865e-11
-9.20301e-10
-5.80323e-11
-8.94269e-10
-6.09627e-11
-8.67088e-10
-6.36445e-11
-8.38851e-10
-6.60735e-11
-8.09669e-10
-6.82511e-11
-7.7965e-10
-7.01788e-11
-7.48905e-10
-7.18644e-11
-7.17556e-10
-7.32812e-11
-6.85705e-10
-7.44342e-11
-6.53461e-10
-7.53191e-11
-6.20953e-10
-7.59329e-11
-5.88279e-10
-7.62915e-11
-5.55538e-10
-7.63904e-11
-5.22858e-10
-7.62254e-11
-4.90349e-10
-7.58002e-11
-4.5811e-10
-7.51255e-11
-4.26239e-10
-7.42129e-11
-3.9484e-10
-7.30613e-11
-3.64016e-10
-7.16929e-11
-3.33855e-10
-7.01079e-11
-3.04454e-10
-6.82988e-11
-2.75905e-10
-6.62643e-11
-2.48283e-10
-6.40424e-11
-2.21666e-10
-6.16341e-11
-1.96132e-10
-5.90501e-11
-1.71751e-10
-5.63102e-11
-1.48592e-10
-5.34131e-11
-1.26712e-10
-5.03766e-11
-1.06159e-10
-4.72044e-11
-8.69813e-11
-4.39169e-11
-6.92299e-11
-4.05299e-11
-5.29166e-11
-3.70779e-11
-3.80843e-11
-3.35557e-11
-2.47571e-11
-2.99751e-11
-1.29449e-11
-2.63628e-11
-2.63832e-12
-2.27304e-11
6.16849e-12
-1.91244e-11
1.34918e-11
-1.55642e-11
1.93559e-11
-1.20554e-11
2.37874e-11
-8.63993e-12
2.68419e-11
-5.3473e-12
2.85939e-11
-2.20141e-12
2.91234e-11
7.54175e-13
2.85527e-11
3.45016e-12
2.70104e-11
5.86626e-12
2.45975e-11
7.94941e-12
2.14314e-11
9.61725e-12
1.77174e-11
1.07306e-11
1.3765e-11
1.12016e-11
9.87733e-12
1.10645e-11
6.22398e-12
1.01838e-11
3.24851e-12
8.20431e-12
1.37063e-12
5.86118e-12
2.68334e-12
3.68454e-11
5.09041e-10
-4.23793e-11
-1.30478e-10
-7.59076e-11
-1.69263e-10
-8.68992e-11
-9.67997e-11
-9.10555e-11
-6.12611e-11
-9.16887e-11
-4.09152e-11
-8.95987e-11
-2.61248e-11
-8.55904e-11
-1.56389e-11
-8.05348e-11
-8.90159e-12
-7.48464e-11
-5.26436e-12
-6.85022e-11
-4.02484e-12
-6.17008e-11
-4.37787e-12
-5.41869e-11
-6.49685e-12
-4.55734e-11
-9.72949e-12
-3.58246e-11
-1.34459e-11
-2.46597e-11
-1.76591e-11
-1.2209e-11
-2.23739e-11
1.44206e-12
-2.73841e-11
1.66376e-11
-3.27564e-11
3.3594e-11
-3.83464e-11
5.22557e-11
-4.3671e-11
7.261e-11
-4.90843e-11
9.46027e-11
-5.44397e-11
1.18115e-10
-5.97645e-11
1.43271e-10
-6.50152e-11
1.70055e-10
-7.01726e-11
1.98404e-10
-7.51081e-11
2.28321e-10
-7.97851e-11
2.59669e-10
-8.43441e-11
2.92277e-10
-8.85672e-11
3.2616e-10
-9.26052e-11
3.61297e-10
-9.6335e-11
3.97535e-10
-9.97169e-11
4.34768e-10
-1.02819e-10
4.72928e-10
-1.05637e-10
5.11819e-10
-1.08181e-10
5.51316e-10
-1.10346e-10
5.91394e-10
-1.12125e-10
6.31918e-10
-1.13631e-10
6.72763e-10
-1.14692e-10
7.13762e-10
-1.15212e-10
7.54825e-10
-1.15417e-10
7.95836e-10
-1.15301e-10
8.36557e-10
-1.14798e-10
8.7683e-10
-1.13873e-10
9.16643e-10
-1.12638e-10
9.55845e-10
-1.10939e-10
9.9419e-10
-1.08791e-10
1.03159e-09
-1.06145e-10
1.06801e-09
-1.03231e-10
1.1032e-09
-9.99654e-11
1.13697e-09
-9.63157e-11
1.16927e-09
-9.22376e-11
1.20004e-09
-8.77841e-11
1.22911e-09
-8.30019e-11
1.25631e-09
-7.7815e-11
1.28152e-09
-7.22269e-11
1.30473e-09
-6.63754e-11
1.32575e-09
-6.02877e-11
1.34445e-09
-5.39078e-11
1.36073e-09
-4.7149e-11
1.37459e-09
-4.01219e-11
1.38594e-09
-3.28777e-11
1.39464e-09
-2.54125e-11
1.40063e-09
-1.77222e-11
1.40393e-09
-9.85118e-12
1.40441e-09
-1.8532e-12
1.40206e-09
6.22254e-12
1.39682e-09
1.44245e-11
1.38863e-09
2.27574e-11
1.37755e-09
3.11568e-11
1.36354e-09
3.95646e-11
1.34659e-09
4.79661e-11
1.3267e-09
5.63984e-11
1.30388e-09
6.47726e-11
1.27819e-09
7.30352e-11
1.24967e-09
8.1146e-11
1.21827e-09
8.9209e-11
1.18409e-09
9.71722e-11
1.14722e-09
1.04909e-10
1.10775e-09
1.12446e-10
1.06568e-09
1.19748e-10
1.02109e-09
1.26865e-10
9.74083e-10
1.33712e-10
9.24786e-10
1.40253e-10
8.73321e-10
1.46463e-10
8.19792e-10
1.5238e-10
7.64267e-10
1.5797e-10
7.06933e-10
1.63213e-10
6.47909e-10
1.68058e-10
5.87333e-10
1.72468e-10
5.2534e-10
1.76507e-10
4.62047e-10
1.80151e-10
3.97632e-10
1.83382e-10
3.32248e-10
1.8617e-10
2.66062e-10
1.88496e-10
1.99235e-10
1.90353e-10
1.31902e-10
1.91778e-10
6.42255e-11
1.92722e-10
-3.60407e-12
1.93175e-10
-7.14193e-11
1.93111e-10
-1.39087e-10
1.92594e-10
-2.0642e-10
1.91634e-10
-2.73268e-10
1.90234e-10
-3.39446e-10
1.88338e-10
-4.04795e-10
1.85989e-10
-4.69157e-10
1.83195e-10
-5.32409e-10
1.79968e-10
-5.94385e-10
1.76313e-10
-6.54933e-10
1.72244e-10
-7.13908e-10
1.67756e-10
-7.71177e-10
1.62849e-10
-8.26634e-10
1.57587e-10
-8.80134e-10
1.51977e-10
-9.31561e-10
1.46028e-10
-9.8079e-10
1.3975e-10
-1.02771e-09
1.3316e-10
-1.07224e-09
1.263e-10
-1.11428e-09
1.19196e-10
-1.15375e-09
1.11869e-10
-1.19055e-09
1.04318e-10
-1.22464e-09
9.65691e-11
-1.25596e-09
8.86474e-11
-1.28446e-09
8.05832e-11
-1.3101e-09
7.24028e-11
-1.33284e-09
6.41159e-11
-1.35265e-09
5.57507e-11
-1.36953e-09
4.73435e-11
-1.38347e-09
3.89132e-11
-1.39447e-09
3.04867e-11
-1.40255e-09
2.2105e-11
-1.40771e-09
1.3783e-11
-1.40998e-09
5.54068e-12
-1.40939e-09
-2.59402e-12
-1.40601e-09
-1.05981e-11
-1.39988e-09
-1.84503e-11
-1.39106e-09
-2.61094e-11
-1.37962e-09
-3.35731e-11
-1.36562e-09
-4.0827e-11
-1.34916e-09
-4.78633e-11
-1.33034e-09
-5.46377e-11
-1.30924e-09
-6.11288e-11
-1.28597e-09
-6.73202e-11
-1.26063e-09
-7.32008e-11
-1.23334e-09
-7.87622e-11
-1.2042e-09
-8.39952e-11
-1.17336e-09
-8.88772e-11
-1.14093e-09
-9.33943e-11
-1.10704e-09
-9.75369e-11
-1.07182e-09
-1.0129e-10
-1.0354e-09
-1.04671e-10
-9.97919e-10
-1.07661e-10
-9.59522e-10
-1.10264e-10
-9.20339e-10
-1.12465e-10
-8.80517e-10
-1.14256e-10
-8.40189e-10
-1.15648e-10
-7.99502e-10
-1.16622e-10
-7.58588e-10
-1.17204e-10
-7.17583e-10
-1.17393e-10
-6.76633e-10
-1.17175e-10
-6.35873e-10
-1.16561e-10
-5.95427e-10
-1.15572e-10
-5.55419e-10
-1.1422e-10
-5.15977e-10
-1.12503e-10
-4.77226e-10
-1.10446e-10
-4.39284e-10
-1.08051e-10
-4.02272e-10
-1.0531e-10
-3.66293e-10
-1.02243e-10
-3.31451e-10
-9.8885e-11
-2.97841e-10
-9.52448e-11
-2.65553e-10
-9.13366e-11
-2.34683e-10
-8.71793e-11
-2.05307e-10
-8.27887e-11
-1.77498e-10
-7.81867e-11
-1.51318e-10
-7.33838e-11
-1.26831e-10
-6.84024e-11
-1.04082e-10
-6.32786e-11
-8.3111e-11
-5.80497e-11
-6.39571e-11
-5.27108e-11
-4.66425e-11
-4.72898e-11
-3.11825e-11
-4.18231e-11
-1.75695e-11
-3.63456e-11
-5.79079e-12
-3.09063e-11
4.1601e-12
-2.5517e-11
1.23202e-11
-2.0216e-11
1.87314e-11
-1.50521e-11
2.34638e-11
-1.00817e-11
2.66057e-11
-5.34459e-12
2.8239e-11
-8.79081e-13
2.84828e-11
3.20641e-12
2.75247e-11
6.82286e-12
2.55333e-11
9.93893e-12
2.26834e-11
1.24669e-11
1.91397e-11
1.42753e-11
1.51488e-11
1.51926e-11
1.10314e-11
1.51803e-11
7.02927e-12
1.41844e-11
3.53354e-12
1.17001e-11
1.20327e-12
8.19214e-12
3.88586e-12
4.10469e-11
4.67992e-10
-1.31991e-11
-7.62355e-11
-4.87539e-11
-1.33711e-10
-6.33015e-11
-8.22509e-11
-7.0615e-11
-5.39527e-11
-7.4338e-11
-3.71903e-11
-7.53574e-11
-2.51072e-11
-7.41912e-11
-1.68025e-11
-7.12775e-11
-1.18172e-11
-6.68631e-11
-9.67977e-12
-6.10918e-11
-9.7952e-12
-5.39103e-11
-1.15603e-11
-4.53465e-11
-1.5056e-11
-3.56324e-11
-1.94481e-11
-2.4249e-11
-2.48259e-11
-1.10169e-11
-3.08946e-11
3.97187e-12
-3.73598e-11
2.08376e-11
-4.4248e-11
3.95277e-11
-5.14486e-11
6.00013e-11
-5.88165e-11
8.25748e-11
-6.62498e-11
1.07272e-10
-7.37792e-11
1.33936e-10
-8.11057e-11
1.62504e-10
-8.8334e-11
1.93005e-10
-9.55136e-11
2.25299e-10
-1.02472e-10
2.59402e-10
-1.0921e-10
2.95343e-10
-1.15726e-10
3.32995e-10
-1.22e-10
3.72232e-10
-1.278e-10
4.12948e-10
-1.33326e-10
4.55052e-10
-1.38439e-10
4.98429e-10
-1.43094e-10
5.43002e-10
-1.47397e-10
5.88641e-10
-1.51274e-10
6.35104e-10
-1.54644e-10
6.82307e-10
-1.57551e-10
7.30196e-10
-1.60008e-10
7.78555e-10
-1.61991e-10
8.27214e-10
-1.63351e-10
8.76091e-10
-1.64084e-10
9.25062e-10
-1.64391e-10
9.73846e-10
-1.64083e-10
1.02226e-09
-1.63204e-10
1.07022e-09
-1.61844e-10
1.11759e-09
-1.59999e-10
1.16412e-09
-1.57467e-10
1.20967e-09
-1.54341e-10
1.25413e-09
-1.50606e-10
1.29732e-09
-1.4642e-10
1.33903e-09
-1.41678e-10
1.37908e-09
-1.36368e-10
1.41738e-09
-1.30533e-10
1.4538e-09
-1.24208e-10
1.48814e-09
-1.17341e-10
1.52025e-09
-1.09924e-10
1.55002e-09
-1.02007e-10
1.57737e-09
-9.37162e-11
1.60207e-09
-8.49927e-11
1.62399e-09
-7.58294e-11
1.64306e-09
-6.62217e-11
1.65922e-09
-5.62765e-11
1.67236e-09
-4.60248e-11
1.68236e-09
-3.54053e-11
1.68912e-09
-2.448e-11
1.69262e-09
-1.3355e-11
1.6928e-09
-2.03773e-12
1.68957e-09
9.455e-12
1.68285e-09
2.11413e-11
1.67265e-09
3.29622e-11
1.65897e-09
4.48341e-11
1.6418e-09
5.67405e-11
1.62108e-09
6.86774e-11
1.59687e-09
8.06134e-11
1.56918e-09
9.24651e-11
1.53806e-09
1.0416e-10
1.50348e-09
1.15718e-10
1.46551e-09
1.2718e-10
1.42423e-09
1.38448e-10
1.37971e-09
1.49425e-10
1.33204e-09
1.60119e-10
1.28128e-09
1.70507e-10
1.22755e-09
1.80589e-10
1.17096e-09
1.90306e-10
1.11162e-09
1.9959e-10
1.04967e-09
2.08419e-10
9.85233e-10
2.16817e-10
9.18445e-10
2.24758e-10
8.49483e-10
2.3217e-10
7.78498e-10
2.39033e-10
7.05633e-10
2.4533e-10
6.31076e-10
2.51072e-10
5.54979e-10
2.56256e-10
4.77552e-10
2.60813e-10
3.98973e-10
2.64751e-10
3.19429e-10
2.68038e-10
2.39094e-10
2.70682e-10
1.58166e-10
2.72705e-10
7.68588e-11
2.74034e-10
-4.63588e-12
2.74672e-10
-8.61471e-11
2.74621e-10
-1.67462e-10
2.73908e-10
-2.48389e-10
2.72563e-10
-3.28708e-10
2.70553e-10
-4.0824e-10
2.67869e-10
-4.86776e-10
2.64526e-10
-5.64156e-10
2.60577e-10
-6.40199e-10
2.5601e-10
-7.14717e-10
2.50831e-10
-7.87522e-10
2.45051e-10
-8.58448e-10
2.38683e-10
-9.27352e-10
2.3175e-10
-9.94071e-10
2.24304e-10
-1.05845e-09
2.16359e-10
-1.12034e-09
2.07921e-10
-1.17961e-09
1.99013e-10
-1.23613e-09
1.89678e-10
-1.28978e-09
1.79956e-10
-1.34046e-09
1.69879e-10
-1.38807e-09
1.59471e-10
-1.4325e-09
1.48749e-10
-1.47368e-09
1.37749e-10
-1.51154e-09
1.26508e-10
-1.54603e-09
1.15071e-10
-1.57709e-09
1.0347e-10
-1.60469e-09
9.17175e-11
-1.6288e-09
7.98537e-11
-1.64939e-09
6.79337e-11
-1.66646e-09
5.5987e-11
-1.68002e-09
4.40478e-11
-1.69008e-09
3.21632e-11
-1.69666e-09
2.03568e-11
-1.69978e-09
8.66243e-12
-1.69949e-09
-2.8799e-12
-1.69586e-09
-1.42343e-11
-1.68894e-09
-2.53699e-11
-1.6788e-09
-3.62464e-11
-1.66552e-09
-4.68524e-11
-1.64919e-09
-5.71577e-11
-1.62992e-09
-6.71346e-11
-1.60782e-09
-7.67394e-11
-1.58299e-09
-8.59535e-11
-1.55557e-09
-9.47481e-11
-1.52566e-09
-1.0311e-10
-1.4934e-09
-1.11018e-10
-1.45894e-09
-1.18457e-10
-1.42242e-09
-1.25394e-10
-1.384e-09
-1.31818e-10
-1.34382e-09
-1.37715e-10
-1.30204e-09
-1.43072e-10
-1.25881e-09
-1.47897e-10
-1.2143e-09
-1.52179e-10
-1.16867e-09
-1.55896e-10
-1.12209e-09
-1.59045e-10
-1.07472e-09
-1.61627e-10
-1.02673e-09
-1.63632e-10
-9.78287e-10
-1.65069e-10
-9.29545e-10
-1.65943e-10
-8.80682e-10
-1.66254e-10
-8.31858e-10
-1.66e-10
-7.83229e-10
-1.65191e-10
-7.34941e-10
-1.6386e-10
-6.87149e-10
-1.62012e-10
-6.40005e-10
-1.59648e-10
-5.93656e-10
-1.56796e-10
-5.48246e-10
-1.53461e-10
-5.03907e-10
-1.49647e-10
-4.60763e-10
-1.45387e-10
-4.18939e-10
-1.4071e-10
-3.78547e-10
-1.35636e-10
-3.39701e-10
-1.30181e-10
-3.02505e-10
-1.24374e-10
-2.67048e-10
-1.18246e-10
-2.33423e-10
-1.11812e-10
-2.01699e-10
-1.05108e-10
-1.71945e-10
-9.81553e-11