/*--------------------------------*- C++ -*----------------------------------*\
| =========                 |                                                 |
| \\      /  F ield         | OpenFOAM: The Open Source CFD Toolbox           |
|  \\    /   O peration     | Version:  3.0.1                                 |
|   \\  /    A nd           | Web:      www.OpenFOAM.org                      |
|    \\/     M anipulation  |                                                 |
\*---------------------------------------------------------------------------*/
FoamFile
{
    version     2.0;
    format      ascii;
    class       volVectorField;
    location    "1";
    object      U;
}
// * * * * * * * * * * * * * * * * * * * * * * * * * * * * * * * * * * * * * //

dimensions      [0 1 -1 0 0 0 0];

internalField   nonuniform List<vector> 
80000
(
(-0.000318258 -0.000318296 0)
(7.74841e-05 -0.000401149 0)
(9.71525e-05 -0.000113178 0)
(0.000265746 -4.40814e-05 0)
(0.000227229 -1.09575e-05 0)
(0.0002024 -1.65193e-06 0)
(0.000181399 2.3414e-06 0)
(0.000163546 3.81498e-06 0)
(0.000148028 4.59947e-06 0)
(0.000134509 4.5129e-06 0)
(0.000122929 4.144e-06 0)
(0.000113188 3.23737e-06 0)
(0.000104777 2.69757e-06 0)
(9.7556e-05 2.8833e-06 0)
(9.08761e-05 3.00027e-06 0)
(8.51876e-05 2.74764e-06 0)
(8.05098e-05 2.03706e-06 0)
(7.63203e-05 1.36826e-06 0)
(7.28036e-05 1.40925e-06 0)
(6.96106e-05 1.66817e-06 0)
(6.67085e-05 1.64002e-06 0)
(6.45507e-05 1.46655e-06 0)
(6.26832e-05 1.05309e-06 0)
(6.09734e-05 6.5024e-07 0)
(5.98324e-05 7.67291e-07 0)
(5.88613e-05 9.99887e-07 0)
(5.78746e-05 8.65629e-07 0)
(5.74071e-05 7.01039e-07 0)
(5.72685e-05 6.92662e-07 0)
(5.70181e-05 4.70354e-07 0)
(5.70194e-05 2.89491e-07 0)
(5.7425e-05 4.52995e-07 0)
(5.77602e-05 5.68477e-07 0)
(5.80812e-05 3.53719e-07 0)
(5.87871e-05 2.5087e-07 0)
(5.96338e-05 3.60008e-07 0)
(6.03407e-05 2.79659e-07 0)
(6.11791e-05 1.04431e-07 0)
(6.22811e-05 1.70922e-07 0)
(6.33641e-05 2.75994e-07 0)
(6.43472e-05 1.82765e-07 0)
(6.54603e-05 7.39711e-08 0)
(6.67201e-05 1.36863e-07 0)
(6.79082e-05 1.88454e-07 0)
(6.90441e-05 7.55485e-08 0)
(7.03153e-05 4.36805e-09 0)
(7.16584e-05 9.24576e-08 0)
(7.2902e-05 1.18665e-07 0)
(7.40952e-05 2.05992e-08 0)
(7.53617e-05 -1.48901e-08 0)
(7.66525e-05 5.08607e-08 0)
(7.78479e-05 7.18945e-08 0)
(7.89761e-05 -2.55858e-09 0)
(8.01346e-05 -3.64833e-08 0)
(8.12768e-05 2.6326e-08 0)
(8.22928e-05 6.01481e-08 0)
(8.31991e-05 1.10579e-08 0)
(8.40684e-05 -5.62657e-09 0)
(8.48857e-05 4.32911e-08 0)
(8.55808e-05 8.27203e-08 0)
(8.61527e-05 4.63988e-08 0)
(8.66547e-05 2.63154e-08 0)
(8.70763e-05 7.20012e-08 0)
(8.73581e-05 1.16374e-07 0)
(8.74834e-05 1.09988e-07 0)
(8.74981e-05 7.87802e-08 0)
(8.74188e-05 1.0355e-07 0)
(8.71917e-05 1.58992e-07 0)
(8.67859e-05 1.74073e-07 0)
(8.62316e-05 1.54237e-07 0)
(8.55565e-05 1.68856e-07 0)
(8.4745e-05 2.13654e-07 0)
(8.37609e-05 2.55966e-07 0)
(8.2606e-05 2.5243e-07 0)
(8.1321e-05 2.46155e-07 0)
(7.99098e-05 2.82498e-07 0)
(7.83486e-05 3.2039e-07 0)
(7.6631e-05 3.37495e-07 0)
(7.47745e-05 3.30022e-07 0)
(7.27996e-05 3.42459e-07 0)
(7.07006e-05 3.77058e-07 0)
(6.84662e-05 4.06623e-07 0)
(6.61074e-05 4.03212e-07 0)
(6.36463e-05 4.02303e-07 0)
(6.11008e-05 4.06412e-07 0)
(5.8449e-05 4.56207e-07 0)
(5.56763e-05 4.6351e-07 0)
(5.28044e-05 4.66776e-07 0)
(4.9854e-05 4.60188e-07 0)
(4.68336e-05 4.79938e-07 0)
(4.37351e-05 5.00897e-07 0)
(4.05595e-05 5.0812e-07 0)
(3.73197e-05 4.98587e-07 0)
(3.40342e-05 4.93566e-07 0)
(3.071e-05 5.04683e-07 0)
(2.73421e-05 5.23389e-07 0)
(2.3928e-05 5.27153e-07 0)
(2.0481e-05 5.17858e-07 0)
(1.70233e-05 5.07878e-07 0)
(1.35675e-05 5.09515e-07 0)
(1.01095e-05 5.21797e-07 0)
(6.65485e-06 5.15094e-07 0)
(3.21736e-06 5.05793e-07 0)
(-1.92998e-07 4.94317e-07 0)
(-3.56924e-06 4.94917e-07 0)
(-6.90963e-06 4.96884e-07 0)
(-1.02098e-05 4.91157e-07 0)
(-1.34593e-05 4.74406e-07 0)
(-1.66417e-05 4.55765e-07 0)
(-1.97449e-05 4.45044e-07 0)
(-2.27675e-05 4.42105e-07 0)
(-2.57099e-05 4.34598e-07 0)
(-2.85627e-05 4.16534e-07 0)
(-3.13138e-05 3.97346e-07 0)
(-3.39562e-05 3.82311e-07 0)
(-3.64888e-05 3.74373e-07 0)
(-3.89135e-05 3.65018e-07 0)
(-4.12277e-05 3.47455e-07 0)
(-4.34233e-05 3.235e-07 0)
(-4.54928e-05 3.02281e-07 0)
(-4.74348e-05 2.90646e-07 0)
(-4.925e-05 2.80757e-07 0)
(-5.09345e-05 2.64771e-07 0)
(-5.24805e-05 2.4287e-07 0)
(-5.388e-05 2.21173e-07 0)
(-5.51282e-05 2.03776e-07 0)
(-5.6226e-05 1.9118e-07 0)
(-5.71776e-05 1.78836e-07 0)
(-5.79828e-05 1.58703e-07 0)
(-5.86382e-05 1.33156e-07 0)
(-5.91444e-05 1.08289e-07 0)
(-5.95037e-05 9.05714e-08 0)
(-5.97195e-05 7.82817e-08 0)
(-5.97983e-05 6.08317e-08 0)
(-5.97431e-05 3.44906e-08 0)
(-5.95537e-05 6.7797e-09 0)
(-5.92288e-05 -2.21256e-08 0)
(-5.87726e-05 -4.30664e-08 0)
(-5.81953e-05 -6.06909e-08 0)
(-5.75004e-05 -8.18782e-08 0)
(-5.66869e-05 -1.06181e-07 0)
(-5.57553e-05 -1.31398e-07 0)
(-5.471e-05 -1.50465e-07 0)
(-5.35588e-05 -1.64153e-07 0)
(-5.23104e-05 -1.73363e-07 0)
(-5.09729e-05 -1.846e-07 0)
(-4.95505e-05 -1.97514e-07 0)
(-4.80476e-05 -2.08894e-07 0)
(-4.64705e-05 -2.14924e-07 0)
(-4.48286e-05 -2.14831e-07 0)
(-4.31307e-05 -2.14925e-07 0)
(-4.13835e-05 -2.14722e-07 0)
(-3.95922e-05 -2.18114e-07 0)
(-3.7759e-05 -2.22749e-07 0)
(-3.58888e-05 -2.24967e-07 0)
(-3.39912e-05 -2.21108e-07 0)
(-3.20771e-05 -2.14533e-07 0)
(-3.01536e-05 -2.10783e-07 0)
(-2.82257e-05 -2.09424e-07 0)
(-2.62974e-05 -2.10601e-07 0)
(-2.43752e-05 -2.07405e-07 0)
(-2.24686e-05 -2.0115e-07 0)
(-2.05857e-05 -1.92784e-07 0)
(-1.87341e-05 -1.84172e-07 0)
(-1.69191e-05 -1.77938e-07 0)
(-1.51458e-05 -1.71204e-07 0)
(-1.34178e-05 -1.67144e-07 0)
(-1.1739e-05 -1.59151e-07 0)
(-1.01173e-05 -1.4852e-07 0)
(-8.56074e-06 -1.35288e-07 0)
(-7.07228e-06 -1.27688e-07 0)
(-5.65358e-06 -1.20327e-07 0)
(-4.30957e-06 -1.11957e-07 0)
(-3.04312e-06 -1.04109e-07 0)
(-1.86022e-06 -9.01249e-08 0)
(-7.68513e-07 -7.52187e-08 0)
(2.31109e-07 -6.40222e-08 0)
(1.13836e-06 -5.39154e-08 0)
(1.94902e-06 -4.27902e-08 0)
(2.66094e-06 -3.25444e-08 0)
(3.27478e-06 -2.17118e-08 0)
(3.7856e-06 -3.82477e-09 0)
(4.18891e-06 1.3308e-08 0)
(4.48744e-06 2.7755e-08 0)
(4.68594e-06 3.84428e-08 0)
(4.78828e-06 4.90431e-08 0)
(4.79711e-06 5.89174e-08 0)
(4.71216e-06 7.30824e-08 0)
(4.53501e-06 8.6303e-08 0)
(4.27514e-06 9.77437e-08 0)
(3.942e-06 1.12005e-07 0)
(3.54062e-06 1.28151e-07 0)
(3.0729e-06 1.36598e-07 0)
(2.54317e-06 1.23497e-07 0)
(1.9853e-06 8.07179e-08 0)
(1.48321e-06 6.30631e-08 0)
(1.12531e-06 2.01582e-07 0)
(7.53958e-07 6.59797e-07 0)
(-6.66652e-09 1.06217e-06 0)
(-4.59145e-07 6.24199e-07 0)
(-0.000401185 7.74779e-05 0)
(-0.00040509 -0.000404506 0)
(-0.00020216 -0.000114001 0)
(-9.80607e-05 -4.06302e-05 0)
(-6.04992e-05 -8.14355e-06 0)
(-4.02511e-05 5.07561e-06 0)
(-2.53966e-05 1.06158e-05 0)
(-1.67781e-05 1.26093e-05 0)
(-1.13272e-05 1.27038e-05 0)
(-7.97141e-06 1.2228e-05 0)
(-5.74132e-06 1.12203e-05 0)
(-4.21624e-06 9.70608e-06 0)
(-2.74806e-06 8.39748e-06 0)
(-2.07447e-06 7.28888e-06 0)
(-1.31146e-06 6.77382e-06 0)
(-2.28729e-07 6.24112e-06 0)
(8.77507e-07 5.12979e-06 0)
(2.48942e-06 4.08979e-06 0)
(4.0117e-06 3.29348e-06 0)
(5.51186e-06 2.78228e-06 0)
(7.67604e-06 2.62043e-06 0)
(9.99851e-06 2.17478e-06 0)
(1.24633e-05 1.35567e-06 0)
(1.54851e-05 7.91381e-07 0)
(1.85745e-05 4.83885e-07 0)
(2.16739e-05 7.8548e-08 0)
(2.5296e-05 -1.99035e-07 0)
(2.92209e-05 -3.67652e-07 0)
(3.32239e-05 -7.85744e-07 0)
(3.75517e-05 -1.2715e-06 0)
(4.21385e-05 -1.49023e-06 0)
(4.67781e-05 -1.60997e-06 0)
(5.16019e-05 -1.84373e-06 0)
(5.67037e-05 -2.09769e-06 0)
(6.1945e-05 -2.20392e-06 0)
(6.72895e-05 -2.328e-06 0)
(7.27709e-05 -2.61032e-06 0)
(7.83675e-05 -2.77189e-06 0)
(8.40917e-05 -2.77042e-06 0)
(8.9892e-05 -2.84415e-06 0)
(9.56831e-05 -2.98744e-06 0)
(0.000101479 -2.9973e-06 0)
(0.0001073 -2.96488e-06 0)
(0.00011311 -3.0307e-06 0)
(0.000118872 -3.14825e-06 0)
(0.000124615 -3.13069e-06 0)
(0.000130331 -3.0186e-06 0)
(0.000135931 -3.03814e-06 0)
(0.000141345 -3.04701e-06 0)
(0.00014663 -2.94306e-06 0)
(0.000151826 -2.83041e-06 0)
(0.000156833 -2.78019e-06 0)
(0.000161598 -2.73753e-06 0)
(0.000166186 -2.61313e-06 0)
(0.00017059 -2.41367e-06 0)
(0.000174701 -2.26775e-06 0)
(0.000178489 -2.15075e-06 0)
(0.000182022 -1.9444e-06 0)
(0.000185319 -1.71862e-06 0)
(0.000188287 -1.52741e-06 0)
(0.000190863 -1.37684e-06 0)
(0.000193132 -1.17503e-06 0)
(0.000195108 -8.64261e-07 0)
(0.000196691 -6.13039e-07 0)
(0.000197832 -3.86977e-07 0)
(0.00019858 -1.64508e-07 0)
(0.000198984 1.47407e-07 0)
(0.000198988 4.74192e-07 0)
(0.000198536 7.27999e-07 0)
(0.000197653 9.76206e-07 0)
(0.000196395 1.29303e-06 0)
(0.000194756 1.61637e-06 0)
(0.000192675 1.9224e-06 0)
(0.000190132 2.18085e-06 0)
(0.000187177 2.4589e-06 0)
(0.000183833 2.79595e-06 0)
(0.00018008 3.07999e-06 0)
(0.000175902 3.33692e-06 0)
(0.000171295 3.60318e-06 0)
(0.000166313 3.88013e-06 0)
(0.000160972 4.17869e-06 0)
(0.000155264 4.39926e-06 0)
(0.000149172 4.61677e-06 0)
(0.00014271 4.83969e-06 0)
(0.000135957 5.04133e-06 0)
(0.000128918 5.30426e-06 0)
(0.000121542 5.49368e-06 0)
(0.000113833 5.67889e-06 0)
(0.000105861 5.84379e-06 0)
(9.7675e-05 6.02708e-06 0)
(8.92683e-05 6.19157e-06 0)
(8.0618e-05 6.3198e-06 0)
(7.17504e-05 6.41992e-06 0)
(6.27184e-05 6.52724e-06 0)
(5.35654e-05 6.63033e-06 0)
(4.4291e-05 6.73098e-06 0)
(3.48843e-05 6.79397e-06 0)
(2.53738e-05 6.83901e-06 0)
(1.58144e-05 6.86256e-06 0)
(6.2472e-06 6.87557e-06 0)
(-3.32355e-06 6.87967e-06 0)
(-1.28947e-05 6.83437e-06 0)
(-2.24425e-05 6.79173e-06 0)
(-3.19224e-05 6.73824e-06 0)
(-4.12969e-05 6.68712e-06 0)
(-5.05599e-05 6.61297e-06 0)
(-5.97137e-05 6.51006e-06 0)
(-6.87378e-05 6.38412e-06 0)
(-7.75878e-05 6.24613e-06 0)
(-8.62267e-05 6.10274e-06 0)
(-9.46425e-05 5.94719e-06 0)
(-0.000102832 5.7667e-06 0)
(-0.000110782 5.56377e-06 0)
(-0.000118459 5.35377e-06 0)
(-0.000125831 5.14392e-06 0)
(-0.000132881 4.92697e-06 0)
(-0.000139608 4.69876e-06 0)
(-0.000146015 4.45585e-06 0)
(-0.000152084 4.20235e-06 0)
(-0.000157783 3.95099e-06 0)
(-0.000163095 3.70353e-06 0)
(-0.000168019 3.44291e-06 0)
(-0.000172562 3.16267e-06 0)
(-0.00017672 2.87026e-06 0)
(-0.000180474 2.57542e-06 0)
(-0.000183804 2.28014e-06 0)
(-0.000186709 1.98518e-06 0)
(-0.000189198 1.68899e-06 0)
(-0.000191281 1.38341e-06 0)
(-0.000192948 1.07365e-06 0)
(-0.000194184 7.73824e-07 0)
(-0.000194985 4.88612e-07 0)
(-0.000195365 2.12446e-07 0)
(-0.000195343 -6.61179e-08 0)
(-0.000194928 -3.48116e-07 0)
(-0.00019412 -6.19376e-07 0)
(-0.000192916 -8.87871e-07 0)
(-0.000191322 -1.13644e-06 0)
(-0.000189361 -1.37628e-06 0)
(-0.000187051 -1.62134e-06 0)
(-0.000184402 -1.86472e-06 0)
(-0.000181424 -2.09874e-06 0)
(-0.000178124 -2.31594e-06 0)
(-0.000174512 -2.52168e-06 0)
(-0.000170613 -2.71205e-06 0)
(-0.000166454 -2.89816e-06 0)
(-0.000162052 -3.07507e-06 0)
(-0.000157416 -3.2373e-06 0)
(-0.000152554 -3.38009e-06 0)
(-0.000147485 -3.50505e-06 0)
(-0.000142238 -3.6201e-06 0)
(-0.000136845 -3.72276e-06 0)
(-0.000131325 -3.8175e-06 0)
(-0.000125692 -3.90116e-06 0)
(-0.000119955 -3.96761e-06 0)
(-0.000114131 -4.01073e-06 0)
(-0.000108246 -4.03847e-06 0)
(-0.000102329 -4.05729e-06 0)
(-9.6411e-05 -4.0629e-06 0)
(-9.05064e-05 -4.05881e-06 0)
(-8.4625e-05 -4.03193e-06 0)
(-7.87817e-05 -3.98866e-06 0)
(-7.29987e-05 -3.93083e-06 0)
(-6.73012e-05 -3.86163e-06 0)
(-6.17105e-05 -3.78405e-06 0)
(-5.62422e-05 -3.6924e-06 0)
(-5.091e-05 -3.5927e-06 0)
(-4.57259e-05 -3.47754e-06 0)
(-4.0704e-05 -3.34817e-06 0)
(-3.58657e-05 -3.20451e-06 0)
(-3.1234e-05 -3.06085e-06 0)
(-2.68218e-05 -2.90984e-06 0)
(-2.26321e-05 -2.74807e-06 0)
(-1.86724e-05 -2.57776e-06 0)
(-1.49541e-05 -2.39163e-06 0)
(-1.14888e-05 -2.20092e-06 0)
(-8.29047e-06 -2.01233e-06 0)
(-5.37032e-06 -1.81863e-06 0)
(-2.73236e-06 -1.61743e-06 0)
(-3.74849e-07 -1.41555e-06 0)
(1.70517e-06 -1.2133e-06 0)
(3.50563e-06 -9.96403e-07 0)
(5.02049e-06 -7.83916e-07 0)
(6.24527e-06 -5.79104e-07 0)
(7.18036e-06 -3.84218e-07 0)
(7.83541e-06 -1.92887e-07 0)
(8.22385e-06 -5.63633e-09 0)
(8.36062e-06 1.818e-07 0)
(8.26035e-06 3.56297e-07 0)
(7.93278e-06 5.13723e-07 0)
(7.39189e-06 6.54974e-07 0)
(6.6637e-06 7.77244e-07 0)
(5.78747e-06 8.73838e-07 0)
(4.81443e-06 9.37228e-07 0)
(3.79929e-06 9.33122e-07 0)
(2.81154e-06 8.32512e-07 0)
(1.97744e-06 6.76002e-07 0)
(9.42108e-07 7.40269e-07 0)
(1.65887e-07 7.74097e-07 0)
(-7.24452e-07 3.44859e-07 0)
(-0.000113271 9.75599e-05 0)
(-0.000115103 -0.000200272 0)
(-0.000137046 -0.000134023 0)
(-0.000101732 -6.77906e-05 0)
(-8.43899e-05 -3.7904e-05 0)
(-6.82833e-05 -1.89281e-05 0)
(-5.76828e-05 -7.68394e-06 0)
(-4.91494e-05 -1.22225e-06 0)
(-4.25561e-05 2.29549e-06 0)
(-3.75676e-05 4.1312e-06 0)
(-3.39584e-05 4.82462e-06 0)
(-3.03083e-05 5.08377e-06 0)
(-2.72218e-05 4.30138e-06 0)
(-2.42971e-05 3.61132e-06 0)
(-2.16152e-05 3.20942e-06 0)
(-1.91747e-05 2.48431e-06 0)
(-1.59894e-05 1.87889e-06 0)
(-1.25787e-05 9.09106e-07 0)
(-9.15086e-06 -2.92305e-07 0)
(-5.17002e-06 -8.96174e-07 0)
(-1.08794e-06 -1.51581e-06 0)
(3.23543e-06 -2.38905e-06 0)
(8.30188e-06 -2.98899e-06 0)
(1.36759e-05 -3.74155e-06 0)
(1.92695e-05 -4.61933e-06 0)
(2.53587e-05 -5.20787e-06 0)
(3.17456e-05 -5.76317e-06 0)
(3.84101e-05 -6.39113e-06 0)
(4.55886e-05 -6.9737e-06 0)
(5.31025e-05 -7.46334e-06 0)
(6.08122e-05 -8.03547e-06 0)
(6.88766e-05 -8.50007e-06 0)
(7.72222e-05 -8.84346e-06 0)
(8.57375e-05 -9.26387e-06 0)
(9.45451e-05 -9.62445e-06 0)
(0.000103623 -9.88197e-06 0)
(0.000112791 -1.02233e-05 0)
(0.000122103 -1.05119e-05 0)
(0.000131665 -1.06793e-05 0)
(0.000141292 -1.07625e-05 0)
(0.000150855 -1.08974e-05 0)
(0.000160501 -1.09305e-05 0)
(0.000170237 -1.08955e-05 0)
(0.000179863 -1.0911e-05 0)
(0.000189362 -1.09499e-05 0)
(0.000198863 -1.08536e-05 0)
(0.00020829 -1.06366e-05 0)
(0.00021744 -1.05016e-05 0)
(0.000226343 -1.02994e-05 0)
(0.000235119 -9.99646e-06 0)
(0.000243666 -9.67537e-06 0)
(0.000251827 -9.38313e-06 0)
(0.000259643 -9.05696e-06 0)
(0.000267183 -8.62598e-06 0)
(0.000274365 -8.10496e-06 0)
(0.00028106 -7.60727e-06 0)
(0.000287284 -7.1114e-06 0)
(0.000293123 -6.50829e-06 0)
(0.000298511 -5.88338e-06 0)
(0.000303319 -5.27607e-06 0)
(0.000307549 -4.66942e-06 0)
(0.00031126 -4.01002e-06 0)
(0.000314431 -3.20737e-06 0)
(0.000316964 -2.46237e-06 0)
(0.00031882 -1.71923e-06 0)
(0.000320049 -9.61413e-07 0)
(0.000320686 -1.24884e-07 0)
(0.000320671 7.39798e-07 0)
(0.000319935 1.52918e-06 0)
(0.000318527 2.32263e-06 0)
(0.0003165 3.19713e-06 0)
(0.000313811 4.06929e-06 0)
(0.000310395 4.92351e-06 0)
(0.000306248 5.74656e-06 0)
(0.00030144 6.57469e-06 0)
(0.000296012 7.45416e-06 0)
(0.000289903 8.27402e-06 0)
(0.000283075 9.05e-06 0)
(0.000275591 9.85348e-06 0)
(0.000267528 1.06192e-05 0)
(0.00025888 1.1426e-05 0)
(0.000249571 1.2113e-05 0)
(0.00023962 1.28086e-05 0)
(0.00022913 1.34712e-05 0)
(0.000218133 1.41007e-05 0)
(0.000206614 1.47564e-05 0)
(0.000194565 1.53526e-05 0)
(0.000182031 1.58939e-05 0)
(0.000169076 1.64086e-05 0)
(0.000155732 1.68978e-05 0)
(0.00014201 1.73523e-05 0)
(0.00012791 1.77505e-05 0)
(0.000113479 1.80887e-05 0)
(9.87939e-05 1.84123e-05 0)
(8.38835e-05 1.86952e-05 0)
(6.875e-05 1.89446e-05 0)
(5.3419e-05 1.91234e-05 0)
(3.79516e-05 1.9262e-05 0)
(2.24117e-05 1.935e-05 0)
(6.82944e-06 1.93973e-05 0)
(-8.77545e-06 1.93922e-05 0)
(-2.43831e-05 1.93118e-05 0)
(-3.99471e-05 1.92043e-05 0)
(-5.53936e-05 1.90561e-05 0)
(-7.06765e-05 1.88828e-05 0)
(-8.57878e-05 1.86602e-05 0)
(-0.000100719 1.83779e-05 0)
(-0.000115421 1.80408e-05 0)
(-0.000129832 1.76683e-05 0)
(-0.000143911 1.72629e-05 0)
(-0.000157641 1.68167e-05 0)
(-0.000171006 1.63165e-05 0)
(-0.000183973 1.57717e-05 0)
(-0.000196494 1.51948e-05 0)
(-0.000208524 1.45982e-05 0)
(-0.000220045 1.39717e-05 0)
(-0.000231054 1.33158e-05 0)
(-0.000241534 1.26254e-05 0)
(-0.000251446 1.19074e-05 0)
(-0.000260753 1.11789e-05 0)
(-0.000269438 1.04394e-05 0)
(-0.0002775 9.6725e-06 0)
(-0.000284938 8.87746e-06 0)
(-0.000291738 8.06228e-06 0)
(-0.000297875 7.2348e-06 0)
(-0.00030333 6.39937e-06 0)
(-0.000308102 5.56144e-06 0)
(-0.000312203 4.71882e-06 0)
(-0.000315632 3.86464e-06 0)
(-0.00031838 3.00377e-06 0)
(-0.000320433 2.15805e-06 0)
(-0.000321791 1.32759e-06 0)
(-0.000322473 5.083e-07 0)
(-0.000322501 -3.05288e-07 0)
(-0.000321883 -1.11202e-06 0)
(-0.000320616 -1.90151e-06 0)
(-0.000318707 -2.66987e-06 0)
(-0.000316178 -3.40569e-06 0)
(-0.000313048 -4.11934e-06 0)
(-0.000309344 -4.82471e-06 0)
(-0.000305089 -5.51044e-06 0)
(-0.000300295 -6.16521e-06 0)
(-0.000294976 -6.78332e-06 0)
(-0.000289161 -7.36953e-06 0)
(-0.000282885 -7.91821e-06 0)
(-0.000276181 -8.43955e-06 0)
(-0.000269074 -8.92817e-06 0)
(-0.000261582 -9.3798e-06 0)
(-0.000253725 -9.7884e-06 0)
(-0.000245539 -1.01523e-05 0)
(-0.000237063 -1.04776e-05 0)
(-0.000228338 -1.0765e-05 0)
(-0.000219395 -1.10205e-05 0)
(-0.000210259 -1.12391e-05 0)
(-0.000200956 -1.14138e-05 0)
(-0.000191517 -1.15399e-05 0)
(-0.000181981 -1.16258e-05 0)
(-0.00017239 -1.16727e-05 0)
(-0.000162781 -1.16776e-05 0)
(-0.000153181 -1.16486e-05 0)
(-0.000143613 -1.15749e-05 0)
(-0.000134107 -1.146e-05 0)
(-0.000124698 -1.13066e-05 0)
(-0.000115422 -1.11182e-05 0)
(-0.000106311 -1.09006e-05 0)
(-9.73892e-05 -1.06492e-05 0)
(-8.86782e-05 -1.03656e-05 0)
(-8.02038e-05 -1.0046e-05 0)
(-7.19947e-05 -9.69312e-06 0)
(-6.40782e-05 -9.309e-06 0)
(-5.64821e-05 -8.90291e-06 0)
(-4.92288e-05 -8.47676e-06 0)
(-4.23315e-05 -8.02674e-06 0)
(-3.58027e-05 -7.55231e-06 0)
(-2.9658e-05 -7.05098e-06 0)
(-2.39169e-05 -6.53288e-06 0)
(-1.86007e-05 -6.00363e-06 0)
(-1.37242e-05 -5.4601e-06 0)
(-9.29025e-06 -4.90677e-06 0)
(-5.29815e-06 -4.34621e-06 0)
(-1.75188e-06 -3.78034e-06 0)
(1.34522e-06 -3.19827e-06 0)
(3.99016e-06 -2.62177e-06 0)
(6.18082e-06 -2.05501e-06 0)
(7.91873e-06 -1.50026e-06 0)
(9.21702e-06 -9.61438e-07 0)
(1.00983e-05 -4.37433e-07 0)
(1.05831e-05 7.10251e-08 0)
(1.06903e-05 5.48556e-07 0)
(1.04434e-05 9.84873e-07 0)
(9.87027e-06 1.37308e-06 0)
(9.00682e-06 1.70325e-06 0)
(7.89746e-06 1.97571e-06 0)
(6.59802e-06 2.18357e-06 0)
(5.19261e-06 2.27396e-06 0)
(3.8246e-06 2.14177e-06 0)
(2.80996e-06 1.7125e-06 0)
(1.77821e-06 1.23931e-06 0)
(5.50828e-07 1.08816e-06 0)
(-2.78473e-07 1.91573e-07 0)
(-4.42089e-05 0.00026679 0)
(-4.2064e-05 -9.44879e-05 0)
(-7.15564e-05 -9.6352e-05 0)
(-6.65037e-05 -5.99341e-05 0)
(-5.6243e-05 -3.76558e-05 0)
(-5.01837e-05 -2.40979e-05 0)
(-4.50391e-05 -1.3766e-05 0)
(-4.07439e-05 -6.93855e-06 0)
(-3.65559e-05 -2.73982e-06 0)
(-3.32311e-05 -6.98012e-07 0)
(-3.01612e-05 9.44076e-07 0)
(-2.77439e-05 1.48899e-06 0)
(-2.50293e-05 1.36306e-06 0)
(-2.18336e-05 7.78142e-07 0)
(-1.8778e-05 -3.61629e-07 0)
(-1.53325e-05 -1.09255e-06 0)
(-1.17196e-05 -1.90182e-06 0)
(-7.8767e-06 -3.17435e-06 0)
(-3.12485e-06 -4.31488e-06 0)
(2.11773e-06 -5.59149e-06 0)
(7.61325e-06 -6.98771e-06 0)
(1.37493e-05 -8.07027e-06 0)
(2.03638e-05 -9.08267e-06 0)
(2.73903e-05 -1.03286e-05 0)
(3.51298e-05 -1.14498e-05 0)
(4.34353e-05 -1.25666e-05 0)
(5.21234e-05 -1.37566e-05 0)
(6.13482e-05 -1.47142e-05 0)
(7.10549e-05 -1.56268e-05 0)
(8.11375e-05 -1.65702e-05 0)
(9.17062e-05 -1.74382e-05 0)
(0.000102705 -1.81879e-05 0)
(0.000114015 -1.89447e-05 0)
(0.000125706 -1.96368e-05 0)
(0.000137753 -2.01789e-05 0)
(0.000149997 -2.07483e-05 0)
(0.000162451 -2.1309e-05 0)
(0.000175195 -2.1663e-05 0)
(0.000188106 -2.19631e-05 0)
(0.000201061 -2.22224e-05 0)
(0.00021413 -2.23774e-05 0)
(0.000227323 -2.23748e-05 0)
(0.000240461 -2.23479e-05 0)
(0.000253462 -2.23547e-05 0)
(0.000266438 -2.22408e-05 0)
(0.000279352 -2.19694e-05 0)
(0.000292013 -2.16393e-05 0)
(0.00030438 -2.13108e-05 0)
(0.000316543 -2.07995e-05 0)
(0.000328449 -2.01748e-05 0)
(0.000339929 -1.95685e-05 0)
(0.000350954 -1.89477e-05 0)
(0.000361598 -1.8171e-05 0)
(0.000371799 -1.72578e-05 0)
(0.000381411 -1.63167e-05 0)
(0.000390419 -1.53433e-05 0)
(0.000398884 -1.42609e-05 0)
(0.000406768 -1.30589e-05 0)
(0.000413935 -1.18707e-05 0)
(0.00042034 -1.06749e-05 0)
(0.000426036 -9.37828e-06 0)
(0.000431001 -7.97539e-06 0)
(0.000435147 -6.50332e-06 0)
(0.000438417 -5.06186e-06 0)
(0.000440848 -3.56414e-06 0)
(0.000442465 -1.98327e-06 0)
(0.0004432 -3.86829e-07 0)
(0.000442996 1.21263e-06 0)
(0.000441871 2.79934e-06 0)
(0.000439864 4.42926e-06 0)
(0.000436964 6.12959e-06 0)
(0.0004331 7.79529e-06 0)
(0.000428258 9.44435e-06 0)
(0.000422496 1.11093e-05 0)
(0.000415838 1.27662e-05 0)
(0.000408261 1.44218e-05 0)
(0.000399732 1.60212e-05 0)
(0.00039028 1.75737e-05 0)
(0.000379981 1.91549e-05 0)
(0.000368835 2.06793e-05 0)
(0.00035681 2.21959e-05 0)
(0.000343919 2.36042e-05 0)
(0.000330224 2.4988e-05 0)
(0.000315783 2.63257e-05 0)
(0.000300593 2.76098e-05 0)
(0.00028466 2.88431e-05 0)
(0.000268031 3.00084e-05 0)
(0.000250776 3.10891e-05 0)
(0.000232953 3.21322e-05 0)
(0.000214574 3.30887e-05 0)
(0.000195645 3.39519e-05 0)
(0.000176218 3.47383e-05 0)
(0.000156373 3.54407e-05 0)
(0.000136175 3.60888e-05 0)
(0.000115646 3.66472e-05 0)
(9.48118e-05 3.71083e-05 0)
(7.3726e-05 3.74638e-05 0)
(5.24674e-05 3.77394e-05 0)
(3.11034e-05 3.79257e-05 0)
(9.66543e-06 3.80212e-05 0)
(-1.182e-05 3.80025e-05 0)
(-3.32993e-05 3.78775e-05 0)
(-5.46922e-05 3.76819e-05 0)
(-7.59303e-05 3.74034e-05 0)
(-9.69746e-05 3.70415e-05 0)
(-0.000117795 3.65854e-05 0)
(-0.000138348 3.60325e-05 0)
(-0.000158563 3.53857e-05 0)
(-0.000178375 3.46671e-05 0)
(-0.000197747 3.38704e-05 0)
(-0.000216654 3.2988e-05 0)
(-0.000235062 3.20123e-05 0)
(-0.000252912 3.0961e-05 0)
(-0.000270145 2.98486e-05 0)
(-0.000286721 2.86766e-05 0)
(-0.000302618 2.74428e-05 0)
(-0.000317817 2.61462e-05 0)
(-0.000332276 2.47904e-05 0)
(-0.000345948 2.33884e-05 0)
(-0.000358797 2.19528e-05 0)
(-0.000370806 2.0479e-05 0)
(-0.000381968 1.89566e-05 0)
(-0.000392269 1.73933e-05 0)
(-0.000401684 1.58019e-05 0)
(-0.000410186 1.4187e-05 0)
(-0.000417763 1.25529e-05 0)
(-0.000424417 1.09043e-05 0)
(-0.000430152 9.24509e-06 0)
(-0.000434962 7.57491e-06 0)
(-0.000438833 5.90349e-06 0)
(-0.000441755 4.25051e-06 0)
(-0.000443737 2.61442e-06 0)
(-0.0004448 9.9459e-07 0)
(-0.000444961 -6.08647e-07 0)
(-0.000444229 -2.1881e-06 0)
(-0.000442608 -3.7377e-06 0)
(-0.000440112 -5.24192e-06 0)
(-0.000436765 -6.7016e-06 0)
(-0.000432598 -8.12234e-06 0)
(-0.000427642 -9.5102e-06 0)
(-0.000421921 -1.08483e-05 0)
(-0.000415455 -1.21267e-05 0)
(-0.000408273 -1.3341e-05 0)
(-0.000400416 -1.44934e-05 0)
(-0.00039193 -1.55817e-05 0)
(-0.000382853 -1.66086e-05 0)
(-0.000373215 -1.75662e-05 0)
(-0.000363046 -1.8451e-05 0)
(-0.000352386 -1.92586e-05 0)
(-0.00034128 -1.99862e-05 0)
(-0.000329779 -2.06388e-05 0)
(-0.000317932 -2.12157e-05 0)
(-0.000305777 -2.17215e-05 0)
(-0.000293353 -2.2147e-05 0)
(-0.000280698 -2.24898e-05 0)
(-0.000267859 -2.27491e-05 0)
(-0.000254891 -2.29286e-05 0)
(-0.000241846 -2.30303e-05 0)
(-0.00022876 -2.30517e-05 0)
(-0.000215672 -2.2996e-05 0)
(-0.000202623 -2.286e-05 0)
(-0.000189657 -2.26467e-05 0)
(-0.00017682 -2.23617e-05 0)
(-0.000164156 -2.20056e-05 0)
(-0.000151708 -2.15866e-05 0)
(-0.000139507 -2.11022e-05 0)
(-0.000127586 -2.05503e-05 0)
(-0.000115982 -1.99294e-05 0)
(-0.000104734 -1.92502e-05 0)
(-9.38761e-05 -1.85154e-05 0)
(-8.34428e-05 -1.77291e-05 0)
(-7.346e-05 -1.6897e-05 0)
(-6.39498e-05 -1.60176e-05 0)
(-5.4934e-05 -1.50948e-05 0)
(-4.64355e-05 -1.41289e-05 0)
(-3.84798e-05 -1.31285e-05 0)
(-3.10916e-05 -1.20994e-05 0)
(-2.42835e-05 -1.10472e-05 0)
(-1.80607e-05 -9.97569e-06 0)
(-1.24303e-05 -8.8859e-06 0)
(-7.39774e-06 -7.78485e-06 0)
(-2.96615e-06 -6.67239e-06 0)
(8.62046e-07 -5.56874e-06 0)
(4.08655e-06 -4.47955e-06 0)
(6.71507e-06 -3.40607e-06 0)
(8.76289e-06 -2.36287e-06 0)
(1.02529e-05 -1.35485e-06 0)
(1.12125e-05 -3.85866e-07 0)
(1.16666e-05 5.28755e-07 0)
(1.16459e-05 1.36554e-06 0)
(1.11992e-05 2.10582e-06 0)
(1.03879e-05 2.71844e-06 0)
(9.27715e-06 3.19535e-06 0)
(7.91583e-06 3.5516e-06 0)
(6.32171e-06 3.79759e-06 0)
(4.55588e-06 3.85499e-06 0)
(3.08346e-06 3.47704e-06 0)
(2.03346e-06 2.57232e-06 0)
(9.2377e-07 1.73562e-06 0)
(8.87679e-08 7.00708e-07 0)
(-1.10965e-05 0.000229047 0)
(-9.77015e-06 -5.50468e-05 0)
(-4.21085e-05 -7.63899e-05 0)
(-4.48926e-05 -4.66265e-05 0)
(-4.2944e-05 -3.24943e-05 0)
(-3.99605e-05 -2.27392e-05 0)
(-3.77102e-05 -1.49582e-05 0)
(-3.54162e-05 -8.83367e-06 0)
(-3.33533e-05 -5.18327e-06 0)
(-3.05818e-05 -2.90839e-06 0)
(-2.80303e-05 -2.07324e-06 0)
(-2.55307e-05 -1.72679e-06 0)
(-2.27505e-05 -1.63684e-06 0)
(-1.98056e-05 -2.52444e-06 0)
(-1.59888e-05 -3.65519e-06 0)
(-1.16555e-05 -5.03103e-06 0)
(-7.21484e-06 -6.78782e-06 0)
(-2.05898e-06 -8.23332e-06 0)
(3.73021e-06 -9.75741e-06 0)
(1.00168e-05 -1.16945e-05 0)
(1.72139e-05 -1.34782e-05 0)
(2.51082e-05 -1.52835e-05 0)
(3.34397e-05 -1.71531e-05 0)
(4.24953e-05 -1.88541e-05 0)
(5.2266e-05 -2.04631e-05 0)
(6.2603e-05 -2.22011e-05 0)
(7.36351e-05 -2.38715e-05 0)
(8.53386e-05 -2.54065e-05 0)
(9.75554e-05 -2.69524e-05 0)
(0.000110321 -2.83471e-05 0)
(0.00012364 -2.96341e-05 0)
(0.000137415 -3.0864e-05 0)
(0.000151685 -3.19931e-05 0)
(0.000166445 -3.29881e-05 0)
(0.000181523 -3.39259e-05 0)
(0.000196869 -3.48306e-05 0)
(0.000212578 -3.55446e-05 0)
(0.000228566 -3.609e-05 0)
(0.00024466 -3.66238e-05 0)
(0.000260896 -3.70028e-05 0)
(0.00027733 -3.71446e-05 0)
(0.000293791 -3.71964e-05 0)
(0.000310155 -3.72001e-05 0)
(0.000326487 -3.70762e-05 0)
(0.000342775 -3.67645e-05 0)
(0.000358836 -3.63605e-05 0)
(0.000374583 -3.58526e-05 0)
(0.00039008 -3.51869e-05 0)
(0.000405309 -3.42983e-05 0)
(0.000420113 -3.33406e-05 0)
(0.000434387 -3.23335e-05 0)
(0.000448168 -3.11891e-05 0)
(0.00046145 -2.98473e-05 0)
(0.000474094 -2.83927e-05 0)
(0.000486008 -2.6876e-05 0)
(0.00049724 -2.52194e-05 0)
(0.000507787 -2.33908e-05 0)
(0.000517522 -2.14741e-05 0)
(0.000526337 -1.9535e-05 0)
(0.000534249 -1.75034e-05 0)
(0.000541287 -1.53085e-05 0)
(0.000547367 -1.3011e-05 0)
(0.000552392 -1.06682e-05 0)
(0.00055636 -8.27744e-06 0)
(0.000559311 -5.78623e-06 0)
(0.000561217 -3.20765e-06 0)
(0.000561975 -6.22599e-07 0)
(0.000561554 1.97182e-06 0)
(0.000560018 4.61553e-06 0)
(0.000557372 7.31966e-06 0)
(0.000553551 1.00567e-05 0)
(0.000548512 1.27672e-05 0)
(0.000542286 1.54745e-05 0)
(0.000534931 1.82122e-05 0)
(0.000526427 2.09312e-05 0)
(0.000516725 2.36057e-05 0)
(0.000505845 2.62201e-05 0)
(0.000493839 2.88075e-05 0)
(0.000480746 3.13917e-05 0)
(0.00046656 3.39016e-05 0)
(0.000451273 3.63416e-05 0)
(0.000434925 3.86833e-05 0)
(0.000417582 4.09761e-05 0)
(0.000399284 4.31937e-05 0)
(0.00038003 4.53092e-05 0)
(0.000359845 4.73106e-05 0)
(0.000338806 4.92169e-05 0)
(0.000316989 5.10154e-05 0)
(0.000294435 5.27192e-05 0)
(0.000271162 5.42858e-05 0)
(0.000247207 5.57008e-05 0)
(0.000222653 5.69975e-05 0)
(0.000197585 5.81708e-05 0)
(0.000172052 5.92237e-05 0)
(0.000146085 6.01276e-05 0)
(0.000119736 6.08744e-05 0)
(9.30982e-05 6.14691e-05 0)
(6.62563e-05 6.19283e-05 0)
(3.92631e-05 6.22348e-05 0)
(1.21569e-05 6.23835e-05 0)
(-1.50053e-05 6.23578e-05 0)
(-4.21413e-05 6.21787e-05 0)
(-6.91583e-05 6.18678e-05 0)
(-9.59907e-05 6.14175e-05 0)
(-0.000122598 6.08098e-05 0)
(-0.000148927 6.00504e-05 0)
(-0.000174902 5.9145e-05 0)
(-0.000200443 5.80979e-05 0)
(-0.000225487 5.69202e-05 0)
(-0.00024999 5.56098e-05 0)
(-0.000273912 5.41605e-05 0)
(-0.000297192 5.25711e-05 0)
(-0.000319762 5.08648e-05 0)
(-0.000341558 4.90525e-05 0)
(-0.000362541 4.71321e-05 0)
(-0.00038268 4.51059e-05 0)
(-0.000401936 4.29761e-05 0)
(-0.000420251 4.07569e-05 0)
(-0.000437573 3.84622e-05 0)
(-0.000453868 3.60999e-05 0)
(-0.000469117 3.36663e-05 0)
(-0.000483304 3.11635e-05 0)
(-0.000496401 2.8602e-05 0)
(-0.000508373 2.59962e-05 0)
(-0.000519195 2.33532e-05 0)
(-0.000528859 2.0677e-05 0)
(-0.000537368 1.79735e-05 0)
(-0.00054472 1.52546e-05 0)
(-0.000550901 1.25259e-05 0)
(-0.000555895 9.79869e-06 0)
(-0.000559702 7.0901e-06 0)
(-0.000562337 4.40271e-06 0)
(-0.000563819 1.74016e-06 0)
(-0.000564163 -8.90085e-07 0)
(-0.000563376 -3.47799e-06 0)
(-0.000561469 -6.01596e-06 0)
(-0.000558464 -8.48814e-06 0)
(-0.000554393 -1.08952e-05 0)
(-0.000549295 -1.32363e-05 0)
(-0.000543203 -1.55114e-05 0)
(-0.000536144 -1.77011e-05 0)
(-0.000528146 -1.97966e-05 0)
(-0.000519249 -2.17925e-05 0)
(-0.000509508 -2.36873e-05 0)
(-0.000498973 -2.54789e-05 0)
(-0.000487686 -2.7166e-05 0)
(-0.000475688 -2.8739e-05 0)
(-0.000463019 -3.01927e-05 0)
(-0.000449731 -3.15232e-05 0)
(-0.000435886 -3.27272e-05 0)
(-0.000421543 -3.38095e-05 0)
(-0.000406757 -3.47672e-05 0)
(-0.000391576 -3.56017e-05 0)
(-0.000376047 -3.63038e-05 0)
(-0.000360226 -3.68735e-05 0)
(-0.000344173 -3.7312e-05 0)
(-0.000327953 -3.76165e-05 0)
(-0.000311625 -3.77953e-05 0)
(-0.000295236 -3.78465e-05 0)
(-0.000278835 -3.77665e-05 0)
(-0.000262477 -3.75574e-05 0)
(-0.000246217 -3.72262e-05 0)
(-0.00023011 -3.67783e-05 0)
(-0.000214211 -3.62132e-05 0)
(-0.000198567 -3.55403e-05 0)
(-0.000183221 -3.47597e-05 0)
(-0.000168217 -3.38671e-05 0)
(-0.000153601 -3.28667e-05 0)
(-0.000139422 -3.17731e-05 0)
(-0.000125722 -3.05892e-05 0)
(-0.00011254 -2.93191e-05 0)
(-9.9907e-05 -2.79702e-05 0)
(-8.78517e-05 -2.65449e-05 0)
(-7.6403e-05 -2.50505e-05 0)
(-6.55919e-05 -2.34901e-05 0)
(-5.54497e-05 -2.1872e-05 0)
(-4.60018e-05 -2.02071e-05 0)
(-3.72632e-05 -1.85085e-05 0)
(-2.92429e-05 -1.67744e-05 0)
(-2.19483e-05 -1.50112e-05 0)
(-1.53867e-05 -1.32318e-05 0)
(-9.56374e-06 -1.14458e-05 0)
(-4.48133e-06 -9.67222e-06 0)
(-1.39213e-07 -7.91668e-06 0)
(3.47246e-06 -6.18701e-06 0)
(6.37467e-06 -4.50265e-06 0)
(8.59546e-06 -2.88093e-06 0)
(1.01687e-05 -1.33416e-06 0)
(1.11248e-05 1.26234e-07 0)
(1.1493e-05 1.47071e-06 0)
(1.13208e-05 2.67361e-06 0)
(1.06816e-05 3.6945e-06 0)
(9.68101e-06 4.47262e-06 0)
(8.43445e-06 4.9703e-06 0)
(6.9773e-06 5.22013e-06 0)
(5.21422e-06 5.29276e-06 0)
(3.42219e-06 5.06635e-06 0)
(2.07254e-06 4.17779e-06 0)
(9.60815e-07 2.87249e-06 0)
(1.59616e-07 1.31129e-06 0)
(-1.78946e-06 0.000205093 0)
(3.39327e-06 -3.28122e-05 0)
(-2.32818e-05 -5.75481e-05 0)
(-3.15438e-05 -3.74391e-05 0)
(-3.33121e-05 -2.62969e-05 0)
(-3.31126e-05 -1.94936e-05 0)
(-3.1952e-05 -1.37503e-05 0)
(-3.11036e-05 -9.53604e-06 0)
(-2.96758e-05 -6.17904e-06 0)
(-2.79733e-05 -4.53499e-06 0)
(-2.56004e-05 -4.15481e-06 0)
(-2.26308e-05 -4.35554e-06 0)
(-1.97099e-05 -5.2725e-06 0)